 PROCESS            0  OF           32  WORKING
 PROCESS           17  OF           32  WORKING
 PROCESS           14  OF           32  WORKING
 PROCESS            7  OF           32  WORKING
 PROCESS            8  OF           32  WORKING
 PROCESS            2  OF           32  WORKING
 PROCESS           11  OF           32  WORKING
 PROCESS            4  OF           32  WORKING
 PROCESS            9  OF           32  WORKING
 PROCESS            5  OF           32  WORKING
 PROCESS           10  OF           32  WORKING
 PROCESS            1  OF           32  WORKING
 PROCESS            6  OF           32  WORKING
 PROCESS           15  OF           32  WORKING
 PROCESS           13  OF           32  WORKING
 PROCESS           27  OF           32  WORKING
 PROCESS           16  OF           32  WORKING
 PROCESS           19  OF           32  WORKING
 PROCESS           12  OF           32  WORKING
 PROCESS           28  OF           32  WORKING
 PROCESS            3  OF           32  WORKING
 PROCESS           20  OF           32  WORKING

         
 *******************************************************************************
 *                                                                             *
 *                               CRYSTAL17                                     *
 *                      public : 1.0.2 - March 1st, 2018                       *
 *                       HTTP://WWW.CRYSTAL.UNITO.IT                           *
 *                                                                             *
 *                              MAIN AUTHORS                                   *
 *                                                                             *
 *  R. DOVESI(1,11), V.R. SAUNDERS(2), C. ROETTI(1,11), R. ORLANDO(1,11),      *
 *  C.M. ZICOVICH-WILSON(1,3), F. PASCALE(4), B. CIVALLERI(1,11),              *
 *  K. DOLL(5), N.M. HARRISON(2,6), I.J. BUSH(7), Ph. D'ARCO(8),               *
 *  M. LLUNELL(9), M. CAUSA'(10), Y. NOEL(8), L. MASCHIO(1,11), A. ERBA(1,11)  *
 PROCESS           26  OF           32  WORKING
 *  M. RE'RAT(14), S. CASASSA(1,11)                                            *
 *                                                                             *
 *        CONTRIBUTIONS TO THE CODE HAVE ALSO BEEN GIVEN BY                    *
 *                                                                             *
 *  M. FERRABONE(1,11), M. DE LA PIERRE(1,11), M. FERRERO(1,11),               *
 *  J. BAIMA(1,11), E. ALBANESE(1,11), M.F. PEINTINGER(12), R. BAST(13),       *
 *  B. KIRTMAN(15), V. LACIVITA(1,11), R. DEMICHELIS(1,16)                     *
 *  G. BRANDEBURG(17), S. SALUSTRO(1,11), G. SANSONE(1,11)                     *
 *  M.T. RUGGIERO(18)                                                          *
 *                                                                             *
 * (1) THEORETICAL CHEMISTRY GROUP - UNIVERSITA' DI TORINO - TORINO (ITALY)    *
 * (2) COMPUTATIONAL SCIENCE & ENGINEERING DEPARTMENT - STFC DARESBURY (UK)    *
 PROCESS           29  OF           32  WORKING
 * (3) UNIVERSIDAD AUTONOMA DEL ESTADO DE MORELOS - CUERNAVACA (MEXICO)        *
 * (4) UNIVERSITE' DE LORRAINE - NANCY (FRANCE)                                *
 * (5) UNIVERSITAET STUTTGART- STUTTGART (GERMANY)                             *
 * (6) IMPERIAL COLLEGE - LONDON (UK)                                          *
 * (7) OXFORD E-RESEARCH CENTRE - OXFORD (UK)                                  *
 * (8) UPMC - SORBONNE UNIVERSITES - PARIS (FRANCE)                            *
 * (9) UNIVERSIDAD DE BARCELONA - BARCELONA (SPAIN)                            *
 *(10) UNIVERSITA' DI NAPOLI "FEDERICO II" - NAPOLI (ITALY)                    *
 *(11) NIS - NANOSTRUCTURED INTERFACES AND SURFACES - TORINO (ITALY)           *
 *(12) MPI FUER CHEMISCHE ENERGIEKONVERSION - MUELHEIM AN DER RUHR (GERMANY)   *
 *(13) UNIVERSITY OF TROMSO - TROMSO (NORWAY)                                  *
 *(14) UNIVERSITE' DE PAU ET DES PAYS DE L'ADOUR - PAU (FRANCE)                *
 PROCESS           22  OF           32  WORKING
 *(15) UNIVERSITY OF CALIFORNIA SANTA BARBARA - SANTA BARBARA (USA)            *
 *(16) CURTIN UNIVERSITY - PERTH (AUSTRALIA)                                   *
 *(17) UNIVERSITY COLLEGE LONDON - LONDON (UK)                                 *
 *(18) CAMBRIDGE UNIVERSITY - CAMBRIDGE (UK)                                   *
 *                                                                             *
 *******************************************************************************
 EEEEEEEEEE STARTING  DATE 04 12 2023 TIME 22:52:47.6
 WTe2                                                                            

 CRYSTAL CALCULATION
 (INPUT ACCORDING TO THE INTERNATIONAL TABLES FOR X-RAY CRYSTALLOGRAPHY)
 CRYSTAL FAMILY                       :  TRICLINIC   
 CRYSTAL CLASS  (GROTH - 1921)        :  TRICLINIC PEDIAL                     

 SPACE GROUP (NONCENTROSYMMETRIC)     :  P 1             

 LATTICE PARAMETERS  (ANGSTROMS AND DEGREES) - CONVENTIONAL CELL
 PROCESS           31  OF           32  WORKING
        A           B           C        ALPHA        BETA       GAMMA
     3.41118     6.14583    13.05199    90.00000    90.00000    90.00000


 PROCESS           23  OF           32  WORKING
 NUMBER OF IRREDUCIBLE ATOMS IN THE CONVENTIONAL CELL:   12

 INPUT COORDINATES

 ATOM AT. N.              COORDINATES
   1 252     5.000000000000E-01  7.793500000000E-01  8.985930000000E-01
   2 252     0.000000000000E+00  2.206500000000E-01  3.985930000000E-01
   3 252     5.000000000000E-01  7.133790000000E-01  3.510940000000E-01
   4 252     0.000000000000E+00  2.866210000000E-01  8.510940000000E-01
   5 252     0.000000000000E+00  8.689660000000E-01  6.641330000000E-01
   6 252     5.000000000000E-01  1.310340000000E-01  1.641330000000E-01
   7 252     0.000000000000E+00  6.322020000000E-01  1.162520000000E-01
   8 252     5.000000000000E-01  3.677980000000E-01  6.162520000000E-01
   9 274     5.000000000000E-01  9.744350000000E-01  5.154360000000E-01
  10 274     0.000000000000E+00  2.556500000000E-02  1.543600000000E-02
  11 274     5.000000000000E-01  3.868610000000E-01  9.997820000000E-01
  12 274     0.000000000000E+00  6.131390000000E-01  4.997820000000E-01

 PROCESS           18  OF           32  WORKING
 *******************************************************************************

 << INFORMATION >>: FROM NOW ON, ALL COORDINATES REFER TO THE PRIMITIVE CELL

 *******************************************************************************

 LATTICE PARAMETERS  (ANGSTROMS AND DEGREES) - PRIMITIVE CELL
       A          B          C        ALPHA      BETA     GAMMA        VOLUME
    3.41118    6.14583   13.05199    90.00000  90.00000  90.00000    273.629041

 COORDINATES OF THE EQUIVALENT ATOMS (FRACTIONAL UNITS)

 N. ATOM EQUIV AT. N.          X                  Y                  Z

   1   1   1  252 TE   -5.00000000000E-01 -2.20650000000E-01 -1.01407000000E-01

   2   2   1  252 TE    0.00000000000E+00  2.20650000000E-01  3.98593000000E-01

   3   3   1  252 TE   -5.00000000000E-01 -2.86621000000E-01  3.51094000000E-01

   4   4   1  252 TE    0.00000000000E+00  2.86621000000E-01 -1.48906000000E-01

   5   5   1  252 TE    0.00000000000E+00 -1.31034000000E-01 -3.35867000000E-01

 PROCESS           25  OF           32  WORKING
   6   6   1  252 TE   -5.00000000000E-01  1.31034000000E-01  1.64133000000E-01

   7   7   1  252 TE    0.00000000000E+00 -3.67798000000E-01  1.16252000000E-01

   8   8   1  252 TE   -5.00000000000E-01  3.67798000000E-01 -3.83748000000E-01

   9   9   1  274 W    -5.00000000000E-01 -2.55650000000E-02 -4.84564000000E-01

  10  10   1  274 W     0.00000000000E+00  2.55650000000E-02  1.54360000000E-02

  11  11   1  274 W    -5.00000000000E-01  3.86861000000E-01 -2.18000000000E-04

  12  12   1  274 W     0.00000000000E+00 -3.86861000000E-01  4.99782000000E-01

 NUMBER OF SYMMETRY OPERATORS         :    1
 *******************************************************************************
 * GEOMETRY EDITING - INPUT COORDINATES ARE GIVEN IN ANGSTROM         
 *******************************************************************************
 INFORMATION **** NEW DEFAULT **** FINALRUN 4 FOR GEOMETRY OPTIMIZATIONS
 INFORMATION **** NEW DEFAULT **** OPTGEOM OPTIMIZES BOTH ATOMIC COORDINATES AND CELL PARAMETERS
 PROCESS           21  OF           32  WORKING
 INFORMATION **** NEW DEFAULT **** TOL. ON ATOMIC DISP TO REDEFINE REF. GEOMETRY: 0.8 Angs
 INFORMATION **** NEW DEFAULT **** N POINTS TO REDEFINE REF. GEOMETRY: N OF OPT DEGS OF FREEDOM
 INFORMATION **** NEW DEFAULT **** TOL. ON ENERGY TO REDEFINE REF. GEOMETRY: 10**-3*(5*N. ATOMS)
 INFORMATION **** FULLOPTG **** FULL OPTIMIZATION (ATOMS AND CELL PARAMETERS)
 INFORMATION **** MAXCYCLE ****   MAXIMUM NUMBER OF OPTIMIZATION CYCLES         800

 IMPORTANT INFORMATION:
 THE COORDINATE SYSTEM ADOPTED IN THE OPTIMIZATION IS NOT IN
 GENERAL HOMOGENEOUS UNITS. FOR THIS REASON THE GRADIENT AND 
 HESSIAN MATRIX IN TERMS OF THIS SYSTEM ARE GIVEN WITHOUT
 UNITS. FOR MORE DETAILS SEE THE MANUAL.

 *******************************************************************************
 COMBINED CELL/ATOM OPTIMIZATION CONTROL

 INITIAL TRUST RADIUS         0.50000 MAXIMUM TRUST RADIUS               4.00000
 MAXIMUM GRADIENT COMPONENT   0.00045 MAXIMUM DISPLACEMENT COMPONENT     0.00180
 PROCESS           30  OF           32  WORKING
 R.M.S. OF GRADIENT COMPONENT 0.00030 R.M.S. OF DISPLACEMENT COMPONENTS  0.00120
 PROCESS           24  OF           32  WORKING
 THRESHOLD ON ENERGY CHANGE 0.100E-06 EXTRAPOLATING POLYNOMIAL ORDER           2
 MAXIMUM ALLOWED NUMBER OF STEPS  800 SORTING OF ENERGY POINTS:               NO
 ANALYTICAL  GRADIENT                 HESSIAN UPDATING                      BFGS
 STEP SIZE NUMERICAL GRADIENT 0.00100
 INITIAL HESSIAN MATRIX: SCHLEGEL MODEL 2
 *******************************************************************************


 GCALCO - MAX INDICES DIRECT LATTICE VECTOR    28    15     7
 NO.OF VECTORS CREATED 6999 STARS 1076 RMAX   145.74009 BOHR

 GEOMETRY FOR WAVE FUNCTION - DIMENSIONALITY OF THE SYSTEM    3
 (NON PERIODIC DIRECTION: LATTICE PARAMETER FORMALLY SET TO 500)
 *******************************************************************************
 LATTICE PARAMETERS (ANGSTROMS AND DEGREES) - BOHR = 0.5291772083 ANGSTROM
 PRIMITIVE CELL - CENTRING CODE 1/0 VOLUME=   273.629041 - DENSITY 10.772 g/cm^3
         A              B              C           ALPHA      BETA       GAMMA 
     3.41118100     6.14583400    13.05198600    90.000000  90.000000  90.000000
 *******************************************************************************
 ATOMS IN THE ASYMMETRIC UNIT   12 - ATOMS IN THE UNIT CELL:   12
     ATOM                 X/A                 Y/B                 Z/C    
 *******************************************************************************
      1 T 252 TE   -5.000000000000E-01 -2.206500000000E-01 -1.014070000000E-01
      2 T 252 TE    0.000000000000E+00  2.206500000000E-01  3.985930000000E-01
      3 T 252 TE    5.000000000000E-01 -2.866210000000E-01  3.510940000000E-01
      4 T 252 TE    0.000000000000E+00  2.866210000000E-01 -1.489060000000E-01
      5 T 252 TE    0.000000000000E+00 -1.310340000000E-01 -3.358670000000E-01
      6 T 252 TE    5.000000000000E-01  1.310340000000E-01  1.641330000000E-01
      7 T 252 TE   -3.081487911020E-33 -3.677980000000E-01  1.162520000000E-01
      8 T 252 TE   -5.000000000000E-01  3.677980000000E-01 -3.837480000000E-01
      9 T 274 W     5.000000000000E-01 -2.556500000000E-02 -4.845640000000E-01
     10 T 274 W     0.000000000000E+00  2.556500000000E-02  1.543600000000E-02
     11 T 274 W    -5.000000000000E-01  3.868610000000E-01 -2.180000000001E-04
     12 T 274 W    -4.930380657631E-32 -3.868610000000E-01  4.997820000000E-01

 T = ATOM BELONGING TO THE ASYMMETRIC UNIT

 ****    1 SYMMOPS - TRANSLATORS IN FRACTIONAL UNITS
 **** MATRICES AND TRANSLATORS IN THE CRYSTALLOGRAPHIC REFERENCE FRAME
   V INV                    ROTATION MATRICES                   TRANSLATORS
   1   1  1.00  0.00  0.00  0.00  1.00  0.00  0.00  0.00  1.00  0.00  0.00  0.00

 DIRECT LATTICE VECTORS CARTESIAN COMPONENTS (ANGSTROM)
          X                    Y                    Z
   0.341118100000E+01   0.208874594648E-15   0.000000000000E+00
   0.000000000000E+00   0.614583400000E+01   0.000000000000E+00
   0.799203643871E-15   0.799203643871E-15   0.130519860000E+02


 CARTESIAN COORDINATES - PRIMITIVE CELL
 *******************************************************************************
 *      ATOM          X(ANGSTROM)         Y(ANGSTROM)         Z(ANGSTROM)
 *******************************************************************************
    1   252 TE    1.705590500000E+00 -1.356078272100E+00 -1.323562744302E+00
    2   252 TE    3.185569780214E-16  1.356078272100E+00  5.202430255698E+00
    3   252 TE    1.705590500000E+00 -1.761525086914E+00  4.582473972684E+00
    4   252 TE   -1.190062177942E-16  1.761525086914E+00 -1.943519027316E+00
    5   252 TE   -2.684261302560E-16 -8.053132123560E-01 -4.383731381862E+00
    6   252 TE    1.705590500000E+00  8.053132123560E-01  2.142261618138E+00
    7   252 TE    9.290902200727E-17 -2.260425453532E+00  1.517319476472E+00
    8   252 TE    1.705590500000E+00  2.260425453532E+00 -5.008673523528E+00
    9   274 W     1.705590500000E+00 -1.571182462100E-01 -6.324522544104E+00
   10   274 W     1.233650744679E-17  1.571182462100E-01  2.014704558960E-01
   11   274 W     1.705590500000E+00  2.377583487074E+00 -2.845332948001E-03
   12   274 W     3.994275955410E-16 -2.377583487074E+00  6.523147667052E+00

 *******************************************************************************
 *** PSEUDOPOTENTIAL INFORMATION ***
 *******************************************************************************

 ATOMIC NUMBER  52, NUCLEAR CHARGE 24.000, GIVEN IN INPUT       PSEUDOPOTENTIAL
   TYPE       EXPONENT      COEFF.    N      EXPONENT      COEFF.    N
  P0 TMS    16.8144730  281.0458430   0     8.7935260   61.6206560   0
  P1 TMS    14.8778010   67.4494640   0    14.2697310  134.9043040   0
             8.7244350   14.6895470   0     8.2915150   29.4150630   0
  P2 TMS    15.2050080   35.4320570   0    15.2258480   53.1356870   0
             6.0717690    9.0698020   0     5.8047600   13.1223040   0
  P3 TMS    15.2061680  -15.7454500   0    15.2017020  -20.7424480   0

 ATOMIC NUMBER  74, NUCLEAR CHARGE 14.000, GIVEN IN INPUT       PSEUDOPOTENTIAL
   TYPE       EXPONENT      COEFF.    N      EXPONENT      COEFF.    N
  P0 TMS    11.0637950  419.2275990   0     8.2176410   41.1913070   0
  P1 TMS     9.3381880  107.3481100   0     8.4304480  214.6995680   0
             9.4900200    0.0254420   2     9.4899470    0.0518950   2
             1.8829970   -0.1171840   0     1.9069720    0.2966890   0
  P2 TMS     6.2054330   58.8812790   0     6.1221570   98.6835560   0
             6.2745560    0.0195370   2     6.2263750    0.0219560   2
             1.9638750   -0.0885770   0     1.8882870   -0.2097260   0
  P3 TMS     2.3079530    6.2324720   0     2.2706090    8.3113450   0
  P4 TMS     3.5834910   -6.8029440   0     3.5625150   -8.4432320   0

 *******************************************************************************
 LOCAL ATOMIC FUNCTIONS BASIS SET
 *******************************************************************************
   ATOM   X(AU)   Y(AU)   Z(AU)  N. TYPE  EXPONENT  S COEF   P COEF   D/F/G COEF
 *******************************************************************************
   1 TE   3.223  -2.563  -2.501
                                  1 S  
                                         6.213E+03 1.739E-04 0.000E+00 0.000E+00
                                         9.209E+02 1.193E-03 0.000E+00 0.000E+00
                                         1.993E+02 3.626E-03 0.000E+00 0.000E+00
                                         2.477E+01-5.979E-02 0.000E+00 0.000E+00
                                         1.484E+01 9.594E-01 0.000E+00 0.000E+00
                                  2 S  
                                         1.228E+01 7.594E-01 0.000E+00 0.000E+00
                                         6.381E+00 3.533E-01 0.000E+00 0.000E+00
                                  3 S  
                                         1.690E+00 1.000E+00 0.000E+00 0.000E+00
                                  4 S  
                                         1.952E-01 1.000E+00 0.000E+00 0.000E+00
                           5-     7 P  
                                         2.043E+02 0.000E+00 4.061E-04 0.000E+00
                                         1.821E+01 0.000E+00 6.026E-02 0.000E+00
                                         9.921E+00 0.000E+00-2.749E-01 0.000E+00
                           8-    10 P  
                                         3.144E+00 0.000E+00 4.315E-01 0.000E+00
                                         1.722E+00 0.000E+00 5.540E-01 0.000E+00
                                         8.910E-01 0.000E+00 2.409E-01 0.000E+00
                          11-    13 P  
                                         5.060E-01 0.000E+00 1.000E+00 0.000E+00
                          14-    16 P  
                                         1.514E-01 0.000E+00 1.000E+00 0.000E+00
                          17-    21 D  
                                         1.215E+02 0.000E+00 0.000E+00 6.349E-04
                                         3.297E+01 0.000E+00 0.000E+00 6.181E-03
                                         1.925E+01 0.000E+00 0.000E+00-8.893E-03
                                         4.720E+00 0.000E+00 0.000E+00 2.016E-01
                                         2.343E+00 0.000E+00 0.000E+00 4.298E-01
                                         1.114E+00 0.000E+00 0.000E+00 3.825E-01
                          22-    26 D  
                                         1.152E+00 0.000E+00 0.000E+00 1.000E+00
                          27-    31 D  
                                         4.722E-01 0.000E+00 0.000E+00 1.000E+00
                          32-    36 D  
                                         1.563E-01 0.000E+00 0.000E+00 1.000E+00
   2 TE   0.000   2.563   9.831
   3 TE   3.223  -3.329   8.660
   4 TE  -0.000   3.329  -3.673
   5 TE  -0.000  -1.522  -8.284
   6 TE   3.223   1.522   4.048
   7 TE   0.000  -4.272   2.867
   8 TE   3.223   4.272  -9.465
   9 W    3.223  -0.297 -11.952
                                289 S  
                                         3.000E+01 3.225E-01 0.000E+00 0.000E+00
                                         2.700E+01-4.669E-01 0.000E+00 0.000E+00
                                         1.308E+01 4.270E-01 0.000E+00 0.000E+00
                                290 S  
                                         4.565E+00 1.000E+00 0.000E+00 0.000E+00
                                291 S  
                                         9.291E-01 1.000E+00 0.000E+00 0.000E+00
                                292 S  
                                         2.594E-01 1.000E+00 0.000E+00 0.000E+00
                         293-   295 P  
                                         1.700E+01 0.000E+00-3.782E-02 0.000E+00
                                         1.243E+01 0.000E+00 1.091E-01 0.000E+00
                                         5.159E+00 0.000E+00-2.940E-01 0.000E+00
                                         1.280E+00 0.000E+00 5.156E-01 0.000E+00
                         296-   298 P  
                                         6.918E-01 0.000E+00 1.000E+00 0.000E+00
                         299-   301 P  
                                         3.587E-01 0.000E+00 1.000E+00 0.000E+00
                         302-   306 D  
                                         7.406E+00 0.000E+00 0.000E+00 8.699E-02
                                         5.903E+00 0.000E+00 0.000E+00-1.767E-01
                                         1.298E+00 0.000E+00 0.000E+00 5.515E-01
                                         5.715E-01 0.000E+00 0.000E+00 9.531E-01
                         307-   311 D  
                                         3.906E-01 0.000E+00 0.000E+00 1.000E+00
                         312-   316 D  
                                         2.284E-01 0.000E+00 0.000E+00 1.000E+00
                         317-   323 F  
                                         4.320E-01 0.000E+00 0.000E+00 1.000E+00
  10 W    0.000   0.297   0.381
  11 W    3.223   4.493  -0.005
  12 W    0.000  -4.493  12.327
 INFORMATION **** SET_MPP **** PCRYSTAL CALCULATION
 INFORMATION **** READM2 **** NEW DEFAULT: FOCK/KS MATRIX MIXING SET TO 30 %
 INFORMATION **** READM2 **** NEW DEFAULT: FULL DIRECT SCF MODE
 INFORMATION **** READM2 **** NEW DEFAULT: COULOMB BIPOLAR BUFFER SET TO 32 Mb
 INFORMATION **** READM2 **** NEW DEFAULT: EXCHANGE BIPOLAR BUFFER SET TO 32 Mb

 *******************************************************************************
 NEW DEFAULT: DFT INTEGRATION GRID INCREASED TO XLGRID
 NEW DEFAULT: DIIS ACCELERATOR ACTIVE
 USE KEYWORD NODIIS TO TURN IT OFF
 *******************************************************************************

 WARNING **** RDDFTP **** HSE06-HJS ACTIVE
 RANGE SEPARATION - OMEGA:   0.110000000000000     
 INFORMATION **** DFTD3_INPUT **** PERFORM LATEST DISPERSION CORRECTION DFT-D3(BJ) WITH AUTOMATIC PARAMETER SETUP
 PLEASE CITE:
 (1) DFT-D3 Reference
  S. Grimme, J. Antony, S. Ehrlich, and H. Krieg, J. Chem. Phys. 132 (2010), 154104
 (2) BJ-Damping Reference
  S. Grimme, S. Ehrlich, and L. Goerigk, J. Comput. Chem. 32 (2011), 1456-1465
 (3) General DFT-D Review
  S. Grimme, A. Hansen, J. G. Brandenburg, and C. Bannwarth,
  Chem. Rev. 116 (2016), 5105-5154

 INFORMATION **** TOLINTEG **** COULOMB AND EXCHANGE SERIES TOLERANCES MODIFIED
 INFORMATION **** TOLDEE **** SCF TOL ON TOTAL ENERGY SET TO           7
 INFORMATION **** READM2 **** FULL DIRECT SCF (MONO AND BIEL INT) SELECTED
 INFORMATION **** BIPOSIZE **** COULOMB BIPOLAR BUFFER SET TO   110000000
 INFORMATION **** EXCHSIZE **** EXCHANGE BIPOLAR BUFFER SIZE SET TO   110000000
 INFORMATION **** MAXCYCLE **** MAX NUMBER OF SCF CYCLES SET TO         800
 INFORMATION **** DIIS **** DIIS FOR SCF ACTIVE
 INFORMATION **** DIIS **** LEVEL SHIFTER DISABLED
 INFORMATION **** PPAN ****  MULLIKEN POPULATION ANALYSIS AT THE END OF SCF
 *******************************************************************************
 N. OF ATOMS PER CELL        12  COULOMB OVERLAP TOL         (T1) 10**   -7
 NUMBER OF SHELLS           140  COULOMB PENETRATION TOL     (T2) 10**   -7
 NUMBER OF AO               428  EXCHANGE OVERLAP TOL        (T3) 10**   -7
 N. OF ELECTRONS PER CELL   248  EXCHANGE PSEUDO OVP (F(G))  (T4) 10**   -9
 CORE ELECTRONS PER CELL      0  EXCHANGE PSEUDO OVP (P(G))  (T5) 10**  -30
 N. OF SYMMETRY OPERATORS     1  POLE ORDER IN MONO ZONE                  4
 *******************************************************************************
 TYPE OF CALCULATION :  UNRESTRICTED OPEN SHELL
 KOHN-SHAM HAMILTONIAN

 (EXCHANGE)[CORRELATION] FUNCTIONAL:(HSE06 SR/GGA)[PERDEW-BURKE-ERNZERHOF]

 RANGE-SEPARATED HYBRID FUNCTIONAL 
 OMEGA (SHORT-RANGE)[LONG-RANGE]:(    0.1100)[    0.0000]

 HYBRID EXCHANGE - PERCENTAGE OF FOCK EXCHANGE    25.0000

 SPIN POLARIZED DFT SELECTED
 CORE  PSEUDO POTENTIAL         TOL. ON PSEUDO              (TP) 10**- 6

 CAPPA:IS1 12;IS2 10;IS3  4; K PTS MONK NET 244; SYMMOPS:K SPACE   2;G SPACE   1

 *******************************************************************************
 MAX NUMBER OF SCF CYCLES     800  CONVERGENCE ON DELTAP        10**-17
 WEIGHT OF F(I) IN F(I+1)      30% CONVERGENCE ON ENERGY        10**- 7
 SHRINK. FACT.(MONKH.)   12 10  4  NUMBER OF K POINTS IN THE IBZ    244
 SHRINKING FACTOR(GILAT NET)   24  NUMBER OF K POINTS(GILAT NET)   1924
 *******************************************************************************
 *** K POINTS COORDINATES (OBLIQUE COORDINATES IN UNITS OF IS = 12)
   1-R(  0  0  0)   2-C(  1  0  0)   3-C(  2  0  0)   4-C(  3  0  0)
   5-C(  4  0  0)   6-C(  5  0  0)   7-R(  6  0  0)   8-C(  0  1  0)
   9-C(  1  1  0)  10-C(  2  1  0)  11-C(  3  1  0)  12-C(  4  1  0)
  13-C(  5  1  0)  14-C(  6  1  0)  15-C(  7  1  0)  16-C(  8  1  0)
  17-C(  9  1  0)  18-C( 10  1  0)  19-C( 11  1  0)  20-C(  0  2  0)
  21-C(  1  2  0)  22-C(  2  2  0)  23-C(  3  2  0)  24-C(  4  2  0)
  25-C(  5  2  0)  26-C(  6  2  0)  27-C(  7  2  0)  28-C(  8  2  0)
  29-C(  9  2  0)  30-C( 10  2  0)  31-C( 11  2  0)  32-C(  0  3  0)
  33-C(  1  3  0)  34-C(  2  3  0)  35-C(  3  3  0)  36-C(  4  3  0)
  37-C(  5  3  0)  38-C(  6  3  0)  39-C(  7  3  0)  40-C(  8  3  0)
  41-C(  9  3  0)  42-C( 10  3  0)  43-C( 11  3  0)  44-C(  0  4  0)
  45-C(  1  4  0)  46-C(  2  4  0)  47-C(  3  4  0)  48-C(  4  4  0)
  49-C(  5  4  0)  50-C(  6  4  0)  51-C(  7  4  0)  52-C(  8  4  0)
  53-C(  9  4  0)  54-C( 10  4  0)  55-C( 11  4  0)  56-R(  0  5  0)
  57-C(  1  5  0)  58-C(  2  5  0)  59-C(  3  5  0)  60-C(  4  5  0)
  61-C(  5  5  0)  62-R(  6  5  0)  63-C(  0  0  1)  64-C(  1  0  1)
  65-C(  2  0  1)  66-C(  3  0  1)  67-C(  4  0  1)  68-C(  5  0  1)
  69-C(  6  0  1)  70-C(  7  0  1)  71-C(  8  0  1)  72-C(  9  0  1)
  73-C( 10  0  1)  74-C( 11  0  1)  75-C(  0  1  1)  76-C(  1  1  1)
  77-C(  2  1  1)  78-C(  3  1  1)  79-C(  4  1  1)  80-C(  5  1  1)
  81-C(  6  1  1)  82-C(  7  1  1)  83-C(  8  1  1)  84-C(  9  1  1)
  85-C( 10  1  1)  86-C( 11  1  1)  87-C(  0  2  1)  88-C(  1  2  1)
  89-C(  2  2  1)  90-C(  3  2  1)  91-C(  4  2  1)  92-C(  5  2  1)
  93-C(  6  2  1)  94-C(  7  2  1)  95-C(  8  2  1)  96-C(  9  2  1)
  97-C( 10  2  1)  98-C( 11  2  1)  99-C(  0  3  1) 100-C(  1  3  1)
 101-C(  2  3  1) 102-C(  3  3  1) 103-C(  4  3  1) 104-C(  5  3  1)
 105-C(  6  3  1) 106-C(  7  3  1) 107-C(  8  3  1) 108-C(  9  3  1)
 109-C( 10  3  1) 110-C( 11  3  1) 111-C(  0  4  1) 112-C(  1  4  1)
 113-C(  2  4  1) 114-C(  3  4  1) 115-C(  4  4  1) 116-C(  5  4  1)
 117-C(  6  4  1) 118-C(  7  4  1) 119-C(  8  4  1) 120-C(  9  4  1)
 121-C( 10  4  1) 122-C( 11  4  1) 123-C(  0  5  1) 124-C(  1  5  1)
 125-C(  2  5  1) 126-C(  3  5  1) 127-C(  4  5  1) 128-C(  5  5  1)
 129-C(  6  5  1) 130-C(  7  5  1) 131-C(  8  5  1) 132-C(  9  5  1)
 133-C( 10  5  1) 134-C( 11  5  1) 135-C(  0  6  1) 136-C(  1  6  1)
 137-C(  2  6  1) 138-C(  3  6  1) 139-C(  4  6  1) 140-C(  5  6  1)
 141-C(  6  6  1) 142-C(  7  6  1) 143-C(  8  6  1) 144-C(  9  6  1)
 145-C( 10  6  1) 146-C( 11  6  1) 147-C(  0  7  1) 148-C(  1  7  1)
 149-C(  2  7  1) 150-C(  3  7  1) 151-C(  4  7  1) 152-C(  5  7  1)
 153-C(  6  7  1) 154-C(  7  7  1) 155-C(  8  7  1) 156-C(  9  7  1)
 157-C( 10  7  1) 158-C( 11  7  1) 159-C(  0  8  1) 160-C(  1  8  1)
 161-C(  2  8  1) 162-C(  3  8  1) 163-C(  4  8  1) 164-C(  5  8  1)
 165-C(  6  8  1) 166-C(  7  8  1) 167-C(  8  8  1) 168-C(  9  8  1)
 169-C( 10  8  1) 170-C( 11  8  1) 171-C(  0  9  1) 172-C(  1  9  1)
 173-C(  2  9  1) 174-C(  3  9  1) 175-C(  4  9  1) 176-C(  5  9  1)
 177-C(  6  9  1) 178-C(  7  9  1) 179-C(  8  9  1) 180-C(  9  9  1)
 181-C( 10  9  1) 182-C( 11  9  1) 183-R(  0  0  2) 184-C(  1  0  2)
 185-C(  2  0  2) 186-C(  3  0  2) 187-C(  4  0  2) 188-C(  5  0  2)
 189-R(  6  0  2) 190-C(  0  1  2) 191-C(  1  1  2) 192-C(  2  1  2)
 193-C(  3  1  2) 194-C(  4  1  2) 195-C(  5  1  2) 196-C(  6  1  2)
 197-C(  7  1  2) 198-C(  8  1  2) 199-C(  9  1  2) 200-C( 10  1  2)
 201-C( 11  1  2) 202-C(  0  2  2) 203-C(  1  2  2) 204-C(  2  2  2)
 205-C(  3  2  2) 206-C(  4  2  2) 207-C(  5  2  2) 208-C(  6  2  2)
 209-C(  7  2  2) 210-C(  8  2  2) 211-C(  9  2  2) 212-C( 10  2  2)
 213-C( 11  2  2) 214-C(  0  3  2) 215-C(  1  3  2) 216-C(  2  3  2)
 217-C(  3  3  2) 218-C(  4  3  2) 219-C(  5  3  2) 220-C(  6  3  2)
 221-C(  7  3  2) 222-C(  8  3  2) 223-C(  9  3  2) 224-C( 10  3  2)
 225-C( 11  3  2) 226-C(  0  4  2) 227-C(  1  4  2) 228-C(  2  4  2)
 229-C(  3  4  2) 230-C(  4  4  2) 231-C(  5  4  2) 232-C(  6  4  2)
 233-C(  7  4  2) 234-C(  8  4  2) 235-C(  9  4  2) 236-C( 10  4  2)
 237-C( 11  4  2) 238-R(  0  5  2) 239-C(  1  5  2) 240-C(  2  5  2)
 241-C(  3  5  2) 242-C(  4  5  2) 243-C(  5  5  2) 244-R(  6  5  2)

 DIRECT LATTICE VECTORS COMPON. (A.U.)     RECIP. LATTICE VECTORS COMPON. (A.U.) 
        X            Y            Z              X            Y            Z
    6.4461979    0.0000000    0.0000000      0.9747118    0.0000000   -0.0000000
    0.0000000   11.6139431    0.0000000     -0.0000000    0.5410036   -0.0000000
    0.0000000    0.0000000   24.6646790      0.0000000    0.0000000    0.2547443

 DISK SPACE FOR EIGENVECTORS (FTN 10)    87928320 REALS

 SYMMETRY ADAPTION OF THE BLOCH FUNCTIONS DISABLED
 TTTTTTTTTTTTTTTTTTTTTTTTTTTTTT gordsh1     TELAPSE        2.01 TCPU        0.44

 MATRIX SIZE: P(G) 2779288, F(G)  218560, P(G) IRR 1405178, F(G) IRR  221288
 MAX G-VECTOR INDEX FOR 1- AND 2-ELECTRON INTEGRALS 187

 TTTTTTTTTTTTTTTTTTTTTTTTTTTTTT INPUT       TELAPSE        2.23 TCPU        0.66

 NEIGHBORS OF THE NON-EQUIVALENT ATOMS

 N = NUMBER OF NEIGHBORS AT DISTANCE R
    ATOM  N     R/ANG      R/AU   NEIGHBORS (ATOM LABELS AND CELL INDICES)
   1 TE   2     2.7431     5.1837   10 W    0 0 0   10 W    1 0 0
   1 TE   1     2.7501     5.1969   11 W    0-1 0
   1 TE   2     3.4112     6.4462    1 TE  -1 0 0    1 TE   1 0 0
   1 TE   2     3.4347     6.4907    7 TE   0 0 0    7 TE   1 0 0
   1 TE   2     3.5304     6.6714    4 TE   0-1 0    4 TE   1-1 0
   1 TE   2     3.5464     6.7017    5 TE   0 0 0    5 TE   1 0 0

   2 TE   2     2.7431     5.1837    9 W    0 0 1    9 W   -1 0 1
   2 TE   1     2.7501     5.1969   12 W    0 1 0
   2 TE   2     3.4112     6.4462    2 TE  -1 0 0    2 TE   1 0 0
   2 TE   2     3.4347     6.4907    8 TE   0 0 1    8 TE  -1 0 1
   2 TE   2     3.5304     6.6714    3 TE   0 1 0    3 TE  -1 1 0
   2 TE   2     3.5464     6.7017    6 TE   0 0 0    6 TE  -1 0 0

   3 TE   2     2.6561     5.0193   12 W    0 0 0   12 W    1 0 0
   3 TE   1     2.6786     5.0619    9 W    0 0 1
   3 TE   2     3.4112     6.4462    3 TE  -1 0 0    3 TE   1 0 0
   3 TE   2     3.5304     6.6714    2 TE   0-1 0    2 TE   1-1 0
   3 TE   1     3.5417     6.6928    6 TE   0 0 0
   3 TE   2     3.5430     6.6954    7 TE   0 0 0    7 TE   1 0 0

   4 TE   2     2.6561     5.0193   11 W    0 0 0   11 W   -1 0 0
   4 TE   1     2.6786     5.0619   10 W    0 0 0
   4 TE   2     3.4112     6.4462    4 TE  -1 0 0    4 TE   1 0 0
   4 TE   2     3.5304     6.6714    1 TE   0 1 0    1 TE  -1 1 0
   4 TE   1     3.5417     6.6928    5 TE   0 0 0
   4 TE   2     3.5430     6.6954    8 TE   0 0 0    8 TE  -1 0 0

   5 TE   1     2.6596     5.0259   12 W    0 0-1
   5 TE   2     2.6638     5.0339    9 W    0 0 0    9 W   -1 0 0
   5 TE   2     3.4112     6.4462    5 TE  -1 0 0    5 TE   1 0 0
   5 TE   1     3.5417     6.6928    4 TE   0 0 0
   5 TE   2     3.5464     6.7017    1 TE   0 0 0    1 TE  -1 0 0
   5 TE   2     3.5635     6.7340    8 TE   0 0 0    8 TE  -1 0 0

   6 TE   1     2.6596     5.0259   11 W    0 0 0
   6 TE   2     2.6638     5.0339   10 W    0 0 0   10 W    1 0 0
   6 TE   2     3.4112     6.4462    6 TE  -1 0 0    6 TE   1 0 0
   6 TE   1     3.5417     6.6928    3 TE   0 0 0
   6 TE   2     3.5464     6.7017    2 TE   0 0 0    2 TE   1 0 0
   6 TE   2     3.5635     6.7340    7 TE   0 0 0    7 TE   1 0 0

   7 TE   2     2.7374     5.1730   11 W    0-1 0   11 W   -1-1 0
   7 TE   1     2.7524     5.2014   10 W    0 0 0
   7 TE   2     3.4112     6.4462    7 TE  -1 0 0    7 TE   1 0 0
   7 TE   2     3.4347     6.4907    1 TE   0 0 0    1 TE  -1 0 0
   7 TE   2     3.5430     6.6954    3 TE   0 0 0    3 TE  -1 0 0
   7 TE   2     3.5635     6.7340    6 TE   0 0 0    6 TE  -1 0 0

   8 TE   2     2.7374     5.1730   12 W    0 1-1   12 W    1 1-1
   8 TE   1     2.7524     5.2014    9 W    0 0 0
   8 TE   2     3.4112     6.4462    8 TE  -1 0 0    8 TE   1 0 0
   8 TE   2     3.4347     6.4907    2 TE   0 0-1    2 TE   1 0-1
   8 TE   2     3.5430     6.6954    4 TE   0 0 0    4 TE   1 0 0
   8 TE   2     3.5635     6.7340    5 TE   0 0 0    5 TE   1 0 0

   9 W    2     2.6638     5.0339    5 TE   0 0 0    5 TE   1 0 0
   9 W    1     2.6786     5.0619    3 TE   0 0-1
   9 W    2     2.7431     5.1837    2 TE   0 0-1    2 TE   1 0-1
   9 W    1     2.7524     5.2014    8 TE   0 0 0
   9 W    2     2.8074     5.3051   12 W    0 0-1   12 W    1 0-1
   9 W    2     3.4112     6.4462    9 W   -1 0 0    9 W    1 0 0

  10 W    2     2.6638     5.0339    6 TE   0 0 0    6 TE  -1 0 0
  10 W    1     2.6786     5.0619    4 TE   0 0 0
  10 W    2     2.7431     5.1837    1 TE   0 0 0    1 TE  -1 0 0
  10 W    1     2.7524     5.2014    7 TE   0 0 0
  10 W    2     2.8074     5.3051   11 W    0 0 0   11 W   -1 0 0
  10 W    2     3.4112     6.4462   10 W   -1 0 0   10 W    1 0 0

  11 W    2     2.6561     5.0193    4 TE   0 0 0    4 TE   1 0 0
  11 W    1     2.6596     5.0259    6 TE   0 0 0
  11 W    2     2.7374     5.1730    7 TE   0 1 0    7 TE   1 1 0
  11 W    1     2.7501     5.1969    1 TE   0 1 0
  11 W    2     2.8074     5.3051   10 W    0 0 0   10 W    1 0 0
  11 W    2     3.4112     6.4462   11 W   -1 0 0   11 W    1 0 0

  12 W    2     2.6561     5.0193    3 TE   0 0 0    3 TE  -1 0 0
  12 W    1     2.6596     5.0259    5 TE   0 0 1
  12 W    2     2.7374     5.1730    8 TE   0-1 1    8 TE  -1-1 1
  12 W    1     2.7501     5.1969    2 TE   0-1 0
  12 W    2     2.8074     5.3051    9 W    0 0 1    9 W   -1 0 1
  12 W    2     3.4112     6.4462   12 W   -1 0 0   12 W    1 0 0


 SYMMETRY ALLOWED ELASTIC DISTORTION 1
  0.5773503  0.0000000  0.0000000
  0.0000000  0.5773503  0.0000000
  0.0000000  0.0000000  0.5773503

 SYMMETRY ALLOWED ELASTIC DISTORTION 2
  0.8164966  0.0000000  0.0000000
  0.0000000 -0.4082483  0.0000000
  0.0000000  0.0000000 -0.4082483

 SYMMETRY ALLOWED ELASTIC DISTORTION 3
  0.0000000  0.7071068  0.0000000
  0.7071068  0.0000000  0.0000000
  0.0000000  0.0000000  0.0000000

 SYMMETRY ALLOWED ELASTIC DISTORTION 4
  0.0000000  0.0000000  0.0000000
  0.0000000  0.7071068  0.0000000
  0.0000000  0.0000000 -0.7071068

 SYMMETRY ALLOWED ELASTIC DISTORTION 5
  0.0000000  0.0000000  0.7071068
  0.0000000  0.0000000  0.0000000
  0.7071068  0.0000000  0.0000000

 SYMMETRY ALLOWED ELASTIC DISTORTION 6
  0.0000000  0.0000000  0.0000000
  0.0000000  0.0000000  0.7071068
  0.0000000  0.7071068  0.0000000

 SYMMETRY ALLOWED INTERNAL DEGREE(S) OF FREEDOM:  33
 TTTTTTTTTTTTTTTTTTTTTTTTTTTTTT SYMM        TELAPSE        2.27 TCPU        0.69
 TTTTTTTTTTTTTTTTTTTTTTTTTTTTTT INT_SCREEN  TELAPSE        2.27 TCPU        0.70

 *******************************************************************************
 *                             OPTIMIZATION STARTS                             *
 *******************************************************************************
 RECLASIFICATION OF INDICES FOR INTEGRAL CALC ACCORDING TO DIFFERENT CRITERIA:
           FIXDELTE                  FIXDELTX              FIXDELTN
          0.10000000               0.80000000                 39
 *******************************************************************************

 *******************************************************************************
 COORDINATE AND CELL OPTIMIZATION - POINT    1

 DFT PARAMETERS

     ATOM       ELECTRONS   NET CHARGE   R(ANGSTROM)
   1 252  TE     24.0000      0.0000     1.37000000
   9 274  W      14.0000      0.0000     1.41000000

 SIZE OF GRID=     271194
 TTTTTTTTTTTTTTTTTTTTTTTTTTTTTT MAKE_GRID2  TELAPSE        5.00 TCPU        3.40
 BECKE WEIGHT FUNCTION
 RADSAFE =     2.00
 TOLERANCES - DENSITY:10**- 6; POTENTIAL:10**- 9; GRID WGT:10**-14

 RADIAL INTEGRATION  - INTERVALS (POINTS,UPPER LIMIT):            1( 75,  4.0*R)

 ANGULAR INTEGRATION - INTERVALS (ACCURACY LEVEL [N. POINTS] UPPER LIMIT):
  1(  4[  86]   0.2)  2(  8[ 194]   0.5)  3( 12[ 350]   0.9)  4( 16[ 974]   3.5)
  5( 12[ 350]9999.0)
 TTTTTTTTTTTTTTTTTTTTTTTTTTTTTT INT_CALC    TELAPSE        5.04 TCPU        3.45

 *******************************************************************************
 WTe2                                                                            
 CRYSTAL - SCF - TYPE OF CALCULATION :  UNRESTRICTED OPEN SHELL
 *******************************************************************************

 CAPPA:IS1 12;IS2 10;IS3  4; K PTS MONK NET 244; SYMMOPS:K SPACE   2;G SPACE   1

 TTTTTTTTTTTTTTTTTTTTTTTTTTTTTT SDIK        TELAPSE        6.50 TCPU        4.64

 AAAAAAAAAAAAAAAAAAAAAAAAAAAAAAAAAAAAAAAAAAAAAAAAAAAAAAAAAAAAAAAAAAAAAAAAAAAAAAA
         ATOMIC WAVEFUNCTION(S)


 NUCLEAR CHARGE 24.0  SYMMETRY SPECIES            S    P    D
 N. ELECTRONS   24.0  NUMBER OF PRIMITIVE GTOS    9    8    9
                      NUMBER OF CONTRACTED GTOS   4    4    4
                      NUMBER OF CLOSED SHELLS     2    1    1
                      OPEN SHELL OCCUPATION       0    4    0

  ZNUC SCFIT  TOTAL HF ENERGY   KINETIC ENERGY   VIRIAL THEOREM ACCURACY
  24.0  12   -2.669357506E+02  1.029568518E+02 -3.592695347E+00  4.0E-06

 NUCLEAR CHARGE 14.0  SYMMETRY SPECIES            S    P    D
 N. ELECTRONS   14.0  NUMBER OF PRIMITIVE GTOS    6    6    6
                      NUMBER OF CONTRACTED GTOS   4    3    3
                      NUMBER OF CLOSED SHELLS     2    1    0
                      OPEN SHELL OCCUPATION       0    0    4

  ZNUC SCFIT  TOTAL HF ENERGY   KINETIC ENERGY   VIRIAL THEOREM ACCURACY
  14.0  41   -6.589661786E+01  2.471738258E+01 -3.666003070E+00  4.6E-06

 AAAAAAAAAAAAAAAAAAAAAAAAAAAAAAAAAAAAAAAAAAAAAAAAAAAAAAAAAAAAAAAAAAAAAAAAAAAAAAA

 CHARGE NORMALIZATION FACTOR   1.00000000
 TOTAL ATOMIC CHARGES:
  24.0000000  24.0000000  24.0000000  24.0000000  24.0000000  24.0000000
  24.0000000  24.0000000  14.0000000  14.0000000  14.0000000  14.0000000
 SUMMED SPIN DENSITY           0.00000000
 TOTAL ATOMIC SPINS  :
   0.0000000   0.0000000   0.0000000   0.0000000   0.0000000   0.0000000
   0.0000000   0.0000000   0.0000000   0.0000000   0.0000000   0.0000000
 TTTTTTTTTTTTTTTTTTTTTTTTTTTTTT MOQGAD      TELAPSE        6.82 TCPU        4.96
 TTTTTTTTTTTTTTTTTTTTTTTTTTTTTT SHELLXN     TELAPSE      254.42 TCPU      251.53
 TTTTTTTTTTTTTTTTTTTTTTTTTTTTTT MONMO3      TELAPSE      291.01 TCPU      287.99
 NUMERICALLY INTEGRATED DENSITY    124.0000079392    124.0000079392
 TTTTTTTTTTTTTTTTTTTTTTTTTTTTTT NUMDFT      TELAPSE      291.69 TCPU      288.59
 CYC   0 ETOT(AU) -2.412124186423E+03 DETOT -2.41E+03 tst  0.00E+00 PX  1.00E+00
 TTTTTTTTTTTTTTTTTTTTTTTTTTTTTT DIIS        TELAPSE      291.84 TCPU      288.75
 TTTTTTTTTTTTTTTTTTTTTTTTTTTTTT FDIK        TELAPSE      318.67 TCPU      315.34
 POSSIBLY CONDUCTING STATE - EFERMI(AU) -3.7162569E-02 (RES. CHARGE  2.84E-14;IT. 12)
 TTTTTTTTTTTTTTTTTTTTTTTTTTTTTT PDIG        TELAPSE      319.83 TCPU      316.50
 CHARGE NORMALIZATION FACTOR   1.00000000
 TOTAL ATOMIC CHARGES:
  25.4745147  25.4745144  25.4406214  25.4406208  25.4553511  25.4553504
  25.4762976  25.4762978  11.0586992  11.0587010  11.0945160  11.0945156
 SUMMED SPIN DENSITY           0.00000000
 TOTAL ATOMIC SPINS  :
  -0.0000000  -0.0000000   0.0000000   0.0000000   0.0000000   0.0000000
  -0.0000000   0.0000000  -0.0000000  -0.0000000   0.0000000  -0.0000000
 TTTTTTTTTTTTTTTTTTTTTTTTTTTTTT MOQGAD      TELAPSE      319.85 TCPU      316.52
 TTTTTTTTTTTTTTTTTTTTTTTTTTTTTT SHELLXN     TELAPSE      571.95 TCPU      567.75
 TTTTTTTTTTTTTTTTTTTTTTTTTTTTTT MONMO3      TELAPSE      611.46 TCPU      607.14
 NUMERICALLY INTEGRATED DENSITY    124.0000067906    124.0000067906
 TTTTTTTTTTTTTTTTTTTTTTTTTTTTTT NUMDFT      TELAPSE      614.14 TCPU      609.81
 CYC   1 ETOT(AU) -2.411531014043E+03 DETOT  5.93E-01 tst  0.00E+00 PX  1.00E+00
 TTTTTTTTTTTTTTTTTTTTTTTTTTTTTT DIIS        TELAPSE      614.30 TCPU      609.97
 DIIS TEST: 0.27416E+02 AT SCF   CYCLE   1 - MIX   30 %
 TTTTTTTTTTTTTTTTTTTTTTTTTTTTTT FDIK        TELAPSE      621.91 TCPU      617.43
 POSSIBLY CONDUCTING STATE - EFERMI(AU) -2.2768796E-01 (RES. CHARGE  3.91E-11;IT. 10)
 TTTTTTTTTTTTTTTTTTTTTTTTTTTTTT PDIG        TELAPSE      623.11 TCPU      618.61
 CHARGE NORMALIZATION FACTOR   1.00000000
 TOTAL ATOMIC CHARGES:
  21.9366614  21.9362422  21.8883645  21.8879565  21.8834933  21.8835953
  21.9300747  21.9304114  18.1954487  18.1951661  18.1662905  18.1662954
 SUMMED SPIN DENSITY          -0.00000016
 TOTAL ATOMIC SPINS  :
  -0.0000003  -0.0000016   0.0000009  -0.0000007  -0.0000019  -0.0000008
  -0.0000001   0.0000012   0.0000004   0.0000021  -0.0000005   0.0000010
 TTTTTTTTTTTTTTTTTTTTTTTTTTTTTT MOQGAD      TELAPSE      623.13 TCPU      618.63
 TTTTTTTTTTTTTTTTTTTTTTTTTTTTTT SHELLXN     TELAPSE      875.42 TCPU      869.82
 TTTTTTTTTTTTTTTTTTTTTTTTTTTTTT MONMO3      TELAPSE      921.05 TCPU      915.36
 NUMERICALLY INTEGRATED DENSITY    124.0000168761    124.0000170348
 TTTTTTTTTTTTTTTTTTTTTTTTTTTTTT NUMDFT      TELAPSE      923.72 TCPU      917.98
 CYC   2 ETOT(AU) -2.385548380064E+03 DETOT  2.60E+01 tst  1.68E+00 PX  1.08E+00
 TTTTTTTTTTTTTTTTTTTTTTTTTTTTTT DIIS        TELAPSE      923.87 TCPU      918.14
 DIIS TEST: 0.17091E+03 AT SCF   CYCLE   2 - DIIS ACTIVE - HISTORY:     2 CYCLES
 TTTTTTTTTTTTTTTTTTTTTTTTTTTTTT FDIK        TELAPSE      931.02 TCPU      925.27
 POSSIBLY CONDUCTING STATE - EFERMI(AU) -1.1454093E-01 (RES. CHARGE  7.84E-12;IT. 10)
 TTTTTTTTTTTTTTTTTTTTTTTTTTTTTT PDIG        TELAPSE      932.13 TCPU      926.38
 CHARGE NORMALIZATION FACTOR   1.00000000
 TOTAL ATOMIC CHARGES:
  24.8170999  24.8170921  24.8507690  24.8508796  24.8277829  24.8278462
  24.8228760  24.8226830  12.3140228  12.3147118  12.3673568  12.3668799
 SUMMED SPIN DENSITY           0.00000033
 TOTAL ATOMIC SPINS  :
  -0.0000074   0.0000438   0.0000143  -0.0000126  -0.0000029   0.0000092
   0.0000215   0.0000110  -0.0000284   0.0000076  -0.0000392  -0.0000167
 TTTTTTTTTTTTTTTTTTTTTTTTTTTTTT MOQGAD      TELAPSE      932.15 TCPU      926.40
 TTTTTTTTTTTTTTTTTTTTTTTTTTTTTT SHELLXN     TELAPSE     1184.24 TCPU     1177.68
 TTTTTTTTTTTTTTTTTTTTTTTTTTTTTT MONMO3      TELAPSE     1229.63 TCPU     1222.98
 NUMERICALLY INTEGRATED DENSITY    124.0000088276    124.0000085006
 TTTTTTTTTTTTTTTTTTTTTTTTTTTTTT NUMDFT      TELAPSE     1232.27 TCPU     1225.62
 CYC   3 ETOT(AU) -2.414174464622E+03 DETOT -2.86E+01 tst  1.51E+00 PX  9.84E-01
 TTTTTTTTTTTTTTTTTTTTTTTTTTTTTT DIIS        TELAPSE     1232.43 TCPU     1225.77
 DIIS TEST: 0.38305E+01 AT SCF   CYCLE   3 - DIIS ACTIVE - HISTORY:     3 CYCLES
 TTTTTTTTTTTTTTTTTTTTTTTTTTTTTT FDIK        TELAPSE     1239.82 TCPU     1233.10
 POSSIBLY CONDUCTING STATE - EFERMI(AU) -1.3803470E-01 (RES. CHARGE  6.07E-10;IT. 12)
 TTTTTTTTTTTTTTTTTTTTTTTTTTTTTT PDIG        TELAPSE     1241.27 TCPU     1234.56
 CHARGE NORMALIZATION FACTOR   1.00000000
 TOTAL ATOMIC CHARGES:
  24.6980875  24.6979030  24.7283518  24.7297165  24.7946584  24.7954160
  24.6880566  24.6879556  12.5942191  12.5878341  12.4969002  12.5009012
 SUMMED SPIN DENSITY           0.00000030
 TOTAL ATOMIC SPINS  :
  -0.0000072   0.0000098  -0.0000025   0.0000060   0.0000023   0.0000019
   0.0000134   0.0000036  -0.0000116   0.0000152  -0.0000328   0.0000023
 TTTTTTTTTTTTTTTTTTTTTTTTTTTTTT MOQGAD      TELAPSE     1241.29 TCPU     1234.58
 TTTTTTTTTTTTTTTTTTTTTTTTTTTTTT SHELLXN     TELAPSE     1493.46 TCPU     1486.25
 TTTTTTTTTTTTTTTTTTTTTTTTTTTTTT MONMO3      TELAPSE     1538.75 TCPU     1531.46
 NUMERICALLY INTEGRATED DENSITY    124.0000090908    124.0000087912
 TTTTTTTTTTTTTTTTTTTTTTTTTTTTTT NUMDFT      TELAPSE     1541.40 TCPU     1534.11
 CYC   4 ETOT(AU) -2.414373937257E+03 DETOT -1.99E-01 tst  1.32E-03 PX  5.18E-02
 TTTTTTTTTTTTTTTTTTTTTTTTTTTTTT DIIS        TELAPSE     1541.56 TCPU     1534.27
 DIIS TEST: 0.15421E+01 AT SCF   CYCLE   4 - DIIS ACTIVE - HISTORY:     4 CYCLES
 TTTTTTTTTTTTTTTTTTTTTTTTTTTTTT FDIK        TELAPSE     1548.39 TCPU     1541.07
 POSSIBLY CONDUCTING STATE - EFERMI(AU) -1.4621768E-01 (RES. CHARGE  1.16E-10;IT. 10)
 TTTTTTTTTTTTTTTTTTTTTTTTTTTTTT PDIG        TELAPSE     1549.69 TCPU     1542.37
 CHARGE NORMALIZATION FACTOR   1.00000000
 TOTAL ATOMIC CHARGES:
  24.6700546  24.6704387  24.5747922  24.5679296  24.4852903  24.4798530
  24.6727733  24.6721087  12.5805920  12.6136890  13.0181470  12.9943314
 SUMMED SPIN DENSITY          -0.00000020
 TOTAL ATOMIC SPINS  :
  -0.0000103   0.0000074   0.0000059   0.0000021   0.0000022   0.0000003
   0.0000106  -0.0000023  -0.0000125   0.0000207  -0.0000337   0.0000093
 TTTTTTTTTTTTTTTTTTTTTTTTTTTTTT MOQGAD      TELAPSE     1549.71 TCPU     1542.39
 TTTTTTTTTTTTTTTTTTTTTTTTTTTTTT SHELLXN     TELAPSE     1801.92 TCPU     1794.12
 TTTTTTTTTTTTTTTTTTTTTTTTTTTTTT MONMO3      TELAPSE     1845.73 TCPU     1837.74
 NUMERICALLY INTEGRATED DENSITY    124.0000094574    124.0000096584
 TTTTTTTTTTTTTTTTTTTTTTTTTTTTTT NUMDFT      TELAPSE     1848.36 TCPU     1840.36
 CYC   5 ETOT(AU) -2.414479473448E+03 DETOT -1.06E-01 tst  2.41E-03 PX  9.20E-02
 TTTTTTTTTTTTTTTTTTTTTTTTTTTTTT DIIS        TELAPSE     1848.52 TCPU     1840.52
 DIIS TEST: 0.82456E+00 AT SCF   CYCLE   5 - DIIS ACTIVE - HISTORY:     5 CYCLES
 TTTTTTTTTTTTTTTTTTTTTTTTTTTTTT FDIK        TELAPSE     1854.34 TCPU     1846.32
 POSSIBLY CONDUCTING STATE - EFERMI(AU) -1.4554638E-01 (RES. CHARGE  1.18E-11;IT. 10)
 TTTTTTTTTTTTTTTTTTTTTTTTTTTTTT PDIG        TELAPSE     1855.44 TCPU     1847.41
 CHARGE NORMALIZATION FACTOR   1.00000000
 TOTAL ATOMIC CHARGES:
  24.5263523  24.5305470  24.6097180  24.6329217  24.6035074  24.6206419
  24.5603114  24.5645559  13.2509327  13.1416640  12.4334350  12.5254126
 SUMMED SPIN DENSITY          -0.00001737
 TOTAL ATOMIC SPINS  :
  -0.0000196  -0.0000013   0.0000029  -0.0000046   0.0000120  -0.0000037
   0.0000103  -0.0000100  -0.0000146   0.0000176  -0.0000321   0.0000256
 TTTTTTTTTTTTTTTTTTTTTTTTTTTTTT MOQGAD      TELAPSE     1855.46 TCPU     1847.43
 TTTTTTTTTTTTTTTTTTTTTTTTTTTTTT SHELLXN     TELAPSE     2108.10 TCPU     2099.32
 TTTTTTTTTTTTTTTTTTTTTTTTTTTTTT MONMO3      TELAPSE     2150.29 TCPU     2141.44
 NUMERICALLY INTEGRATED DENSITY    124.0000014423    124.0000188167
 TTTTTTTTTTTTTTTTTTTTTTTTTTTTTT NUMDFT      TELAPSE     2152.90 TCPU     2144.05
 CYC   6 ETOT(AU) -2.414444681786E+03 DETOT  3.48E-02 tst  1.67E-02 PX  7.02E-02
 TTTTTTTTTTTTTTTTTTTTTTTTTTTTTT DIIS        TELAPSE     2153.07 TCPU     2144.21
 DIIS TEST: 0.14425E+01 AT SCF   CYCLE   6 - DIIS ACTIVE - HISTORY:     6 CYCLES
 TTTTTTTTTTTTTTTTTTTTTTTTTTTTTT FDIK        TELAPSE     2159.10 TCPU     2150.23
 POSSIBLY CONDUCTING STATE - EFERMI(AU) -1.4520483E-01 (RES. CHARGE  8.60E-10;IT.  8)
 TTTTTTTTTTTTTTTTTTTTTTTTTTTTTT PDIG        TELAPSE     2160.18 TCPU     2151.30
 CHARGE NORMALIZATION FACTOR   1.00000000
 TOTAL ATOMIC CHARGES:
  24.5253165  24.5181875  24.6207966  24.6004034  24.6546106  24.6355472
  24.5255395  24.5191911  12.7674520  12.8697508  12.9290476  12.8341572
 SUMMED SPIN DENSITY           0.00000140
 TOTAL ATOMIC SPINS  :
  -0.0000113   0.0000024   0.0000084   0.0000038   0.0000149   0.0000040
   0.0000052  -0.0000093  -0.0000146   0.0000301  -0.0000343   0.0000022
 TTTTTTTTTTTTTTTTTTTTTTTTTTTTTT MOQGAD      TELAPSE     2160.20 TCPU     2151.32
 TTTTTTTTTTTTTTTTTTTTTTTTTTTTTT SHELLXN     TELAPSE     2412.16 TCPU     2402.50
 TTTTTTTTTTTTTTTTTTTTTTTTTTTTTT MONMO3      TELAPSE     2456.39 TCPU     2446.57
 NUMERICALLY INTEGRATED DENSITY    124.0000101685    124.0000087642
 TTTTTTTTTTTTTTTTTTTTTTTTTTTTTT NUMDFT      TELAPSE     2459.01 TCPU     2449.20
 CYC   7 ETOT(AU) -2.414525110856E+03 DETOT -8.04E-02 tst  1.42E-02 PX  5.11E-02
 TTTTTTTTTTTTTTTTTTTTTTTTTTTTTT DIIS        TELAPSE     2459.17 TCPU     2449.36
 DIIS TEST: 0.16949E+00 AT SCF   CYCLE   7 - DIIS ACTIVE - HISTORY:     7 CYCLES
 TTTTTTTTTTTTTTTTTTTTTTTTTTTTTT FDIK        TELAPSE     2464.94 TCPU     2455.08
 POSSIBLY CONDUCTING STATE - EFERMI(AU) -1.4714785E-01 (RES. CHARGE  5.33E-11;IT. 10)
 TTTTTTTTTTTTTTTTTTTTTTTTTTTTTT PDIG        TELAPSE     2466.04 TCPU     2456.19
 CHARGE NORMALIZATION FACTOR   1.00000000
 TOTAL ATOMIC CHARGES:
  24.5392194  24.5687481  24.5430100  24.5915316  24.5378489  24.5951916
  24.5356176  24.5556189  12.9905922  12.7059291  12.7807186  13.0559741
 SUMMED SPIN DENSITY          -0.00000602
 TOTAL ATOMIC SPINS  :
   0.0000032   0.0000068   0.0000093   0.0000094   0.0000038  -0.0000068
   0.0000106  -0.0000042  -0.0000215   0.0000115  -0.0000332   0.0000051
 TTTTTTTTTTTTTTTTTTTTTTTTTTTTTT MOQGAD      TELAPSE     2466.06 TCPU     2456.21
 TTTTTTTTTTTTTTTTTTTTTTTTTTTTTT SHELLXN     TELAPSE     2718.24 TCPU     2707.65
 TTTTTTTTTTTTTTTTTTTTTTTTTTTTTT MONMO3      TELAPSE     2763.22 TCPU     2752.54
 NUMERICALLY INTEGRATED DENSITY    124.0000066102    124.0000126306
 TTTTTTTTTTTTTTTTTTTTTTTTTTTTTT NUMDFT      TELAPSE     2765.83 TCPU     2755.12
 CYC   8 ETOT(AU) -2.414498091702E+03 DETOT  2.70E-02 tst  1.46E-02 PX  3.98E-02
 TTTTTTTTTTTTTTTTTTTTTTTTTTTTTT DIIS        TELAPSE     2765.99 TCPU     2755.28
 DIIS TEST: 0.47338E+00 AT SCF   CYCLE   8 - DIIS ACTIVE - HISTORY:     8 CYCLES
 TTTTTTTTTTTTTTTTTTTTTTTTTTTTTT FDIK        TELAPSE     2771.80 TCPU     2761.07
 POSSIBLY CONDUCTING STATE - EFERMI(AU) -1.4762046E-01 (RES. CHARGE  1.82E-12;IT. 10)
 TTTTTTTTTTTTTTTTTTTTTTTTTTTTTT PDIG        TELAPSE     2772.92 TCPU     2762.19
 CHARGE NORMALIZATION FACTOR   1.00000000
 TOTAL ATOMIC CHARGES:
  24.5787228  24.5668531  24.5383572  24.5417281  24.5249089  24.5103723
  24.5609441  24.5647210  12.8985308  12.9244566  12.9126733  12.8777318
 SUMMED SPIN DENSITY          -0.00000166
 TOTAL ATOMIC SPINS  :
  -0.0000046  -0.0000020   0.0000071   0.0000028   0.0000034  -0.0000098
   0.0000085  -0.0000000   0.0000013   0.0000376  -0.0000365  -0.0000095
 TTTTTTTTTTTTTTTTTTTTTTTTTTTTTT MOQGAD      TELAPSE     2772.94 TCPU     2762.21
 TTTTTTTTTTTTTTTTTTTTTTTTTTTTTT SHELLXN     TELAPSE     3026.04 TCPU     3013.84
 TTTTTTTTTTTTTTTTTTTTTTTTTTTTTT MONMO3      TELAPSE     3068.96 TCPU     3056.64
 NUMERICALLY INTEGRATED DENSITY    124.0000089546    124.0000106157
 TTTTTTTTTTTTTTTTTTTTTTTTTTTTTT NUMDFT      TELAPSE     3071.59 TCPU     3059.25
 CYC   9 ETOT(AU) -2.414540892674E+03 DETOT -4.28E-02 tst  4.02E-03 PX  2.88E-02
 TTTTTTTTTTTTTTTTTTTTTTTTTTTTTT DIIS        TELAPSE     3071.75 TCPU     3059.42
 DIIS TEST: 0.27928E-01 AT SCF   CYCLE   9 - DIIS ACTIVE - HISTORY:     9 CYCLES
 TTTTTTTTTTTTTTTTTTTTTTTTTTTTTT FDIK        TELAPSE     3078.42 TCPU     3066.07
 POSSIBLY CONDUCTING STATE - EFERMI(AU) -1.4717933E-01 (RES. CHARGE  9.47E-11;IT.  8)
 TTTTTTTTTTTTTTTTTTTTTTTTTTTTTT PDIG        TELAPSE     3079.53 TCPU     3067.17
 CHARGE NORMALIZATION FACTOR   1.00000000
 TOTAL ATOMIC CHARGES:
  24.4969709  24.5364399  24.5681400  24.5264781  24.5230353  24.5661167
  24.5548130  24.5185533  12.9102857  12.9236049  12.9282294  12.9473328
 SUMMED SPIN DENSITY           0.00000510
 TOTAL ATOMIC SPINS  :
  -0.0000053  -0.0000015   0.0000012   0.0000004   0.0000003  -0.0000018
   0.0000098   0.0000019  -0.0000003   0.0000211  -0.0000206  -0.0000002
 TTTTTTTTTTTTTTTTTTTTTTTTTTTTTT MOQGAD      TELAPSE     3079.55 TCPU     3067.19
 TTTTTTTTTTTTTTTTTTTTTTTTTTTTTT SHELLXN     TELAPSE     3331.88 TCPU     3318.60
 TTTTTTTTTTTTTTTTTTTTTTTTTTTTTT MONMO3      TELAPSE     3369.37 TCPU     3355.95
 NUMERICALLY INTEGRATED DENSITY    124.0000123516    124.0000072534
 TTTTTTTTTTTTTTTTTTTTTTTTTTTTTT NUMDFT      TELAPSE     3372.00 TCPU     3358.57
 CYC  10 ETOT(AU) -2.414541623858E+03 DETOT -7.31E-04 tst  1.95E-04 PX  2.67E-02
 TTTTTTTTTTTTTTTTTTTTTTTTTTTTTT DIIS        TELAPSE     3372.16 TCPU     3358.73
 DIIS TEST: 0.33762E-01 AT SCF   CYCLE  10 - DIIS ACTIVE - HISTORY:    10 CYCLES
 TTTTTTTTTTTTTTTTTTTTTTTTTTTTTT FDIK        TELAPSE     3378.21 TCPU     3364.75
 POSSIBLY CONDUCTING STATE - EFERMI(AU) -1.4719759E-01 (RES. CHARGE  3.77E-10;IT.  6)
 TTTTTTTTTTTTTTTTTTTTTTTTTTTTTT PDIG        TELAPSE     3379.32 TCPU     3365.86
 CHARGE NORMALIZATION FACTOR   1.00000000
 TOTAL ATOMIC CHARGES:
  24.5291806  24.5034444  24.5319992  24.5632091  24.5592875  24.5308578
  24.5141055  24.5416039  12.9230619  12.9140618  12.9448573  12.9443311
 SUMMED SPIN DENSITY           0.00000443
 TOTAL ATOMIC SPINS  :
  -0.0000010   0.0000020   0.0000019   0.0000010   0.0000046   0.0000008
   0.0000050   0.0000006  -0.0000070   0.0000186  -0.0000212  -0.0000009
 TTTTTTTTTTTTTTTTTTTTTTTTTTTTTT MOQGAD      TELAPSE     3379.34 TCPU     3365.88
 TTTTTTTTTTTTTTTTTTTTTTTTTTTTTT SHELLXN     TELAPSE     3631.76 TCPU     3617.58
 TTTTTTTTTTTTTTTTTTTTTTTTTTTTTT MONMO3      TELAPSE     3667.68 TCPU     3653.42
 NUMERICALLY INTEGRATED DENSITY    124.0000120131    124.0000075783
 TTTTTTTTTTTTTTTTTTTTTTTTTTTTTT NUMDFT      TELAPSE     3670.32 TCPU     3656.05
 CYC  11 ETOT(AU) -2.414542653137E+03 DETOT -1.03E-03 tst  6.64E-05 PX  1.43E-02
 TTTTTTTTTTTTTTTTTTTTTTTTTTTTTT DIIS        TELAPSE     3670.49 TCPU     3656.21
 DIIS TEST: 0.17011E-01 AT SCF   CYCLE  11 - DIIS ACTIVE - HISTORY:    11 CYCLES
 TTTTTTTTTTTTTTTTTTTTTTTTTTTTTT FDIK        TELAPSE     3676.81 TCPU     3662.51
 POSSIBLY CONDUCTING STATE - EFERMI(AU) -1.4738264E-01 (RES. CHARGE  5.04E-10;IT. 10)
 TTTTTTTTTTTTTTTTTTTTTTTTTTTTTT PDIG        TELAPSE     3677.92 TCPU     3663.62
 CHARGE NORMALIZATION FACTOR   1.00000000
 TOTAL ATOMIC CHARGES:
  24.5307970  24.5327839  24.5444986  24.5401356  24.5334054  24.5365769
  24.5133046  24.5084155  12.9355270  12.9202694  12.9592939  12.9449922
 SUMMED SPIN DENSITY           0.00000560
 TOTAL ATOMIC SPINS  :
  -0.0000008   0.0000006  -0.0000005  -0.0000001  -0.0000001   0.0000002
   0.0000030   0.0000011  -0.0000018   0.0000138  -0.0000134   0.0000035
 TTTTTTTTTTTTTTTTTTTTTTTTTTTTTT MOQGAD      TELAPSE     3677.94 TCPU     3663.64
 TTTTTTTTTTTTTTTTTTTTTTTTTTTTTT SHELLXN     TELAPSE     3930.00 TCPU     3914.93
 TTTTTTTTTTTTTTTTTTTTTTTTTTTTTT MONMO3      TELAPSE     3968.77 TCPU     3953.61
 NUMERICALLY INTEGRATED DENSITY    124.0000125796    124.0000069790
 TTTTTTTTTTTTTTTTTTTTTTTTTTTTTT NUMDFT      TELAPSE     3971.41 TCPU     3956.23
 CYC  12 ETOT(AU) -2.414543604923E+03 DETOT -9.52E-04 tst  1.67E-05 PX  1.13E-02
 TTTTTTTTTTTTTTTTTTTTTTTTTTTTTT DIIS        TELAPSE     3971.58 TCPU     3956.40
 DIIS TEST: 0.18864E-02 AT SCF   CYCLE  12 - DIIS ACTIVE - HISTORY:    12 CYCLES
 TTTTTTTTTTTTTTTTTTTTTTTTTTTTTT FDIK        TELAPSE     3977.76 TCPU     3962.55
 POSSIBLY CONDUCTING STATE - EFERMI(AU) -1.4750710E-01 (RES. CHARGE  3.11E-10;IT.  8)
 TTTTTTTTTTTTTTTTTTTTTTTTTTTTTT PDIG        TELAPSE     3978.86 TCPU     3963.65
 CHARGE NORMALIZATION FACTOR   1.00000000
 TOTAL ATOMIC CHARGES:
  24.5229759  24.5224669  24.5360422  24.5367006  24.5345998  24.5333328
  24.5223536  24.5238455  12.9220429  12.9405668  12.9440434  12.9610298
 SUMMED SPIN DENSITY           0.00000444
 TOTAL ATOMIC SPINS  :
  -0.0000008   0.0000005   0.0000005   0.0000004   0.0000008   0.0000004
   0.0000024   0.0000017  -0.0000027   0.0000118  -0.0000120   0.0000015
 TTTTTTTTTTTTTTTTTTTTTTTTTTTTTT MOQGAD      TELAPSE     3978.88 TCPU     3963.67
 TTTTTTTTTTTTTTTTTTTTTTTTTTTTTT SHELLXN     TELAPSE     4231.69 TCPU     4215.43
 TTTTTTTTTTTTTTTTTTTTTTTTTTTTTT MONMO3      TELAPSE     4268.87 TCPU     4252.49
 NUMERICALLY INTEGRATED DENSITY    124.0000120196    124.0000075789
 TTTTTTTTTTTTTTTTTTTTTTTTTTTTTT NUMDFT      TELAPSE     4271.50 TCPU     4255.09
 CYC  13 ETOT(AU) -2.414543714313E+03 DETOT -1.09E-04 tst  4.74E-06 PX  4.98E-03
 TTTTTTTTTTTTTTTTTTTTTTTTTTTTTT DIIS        TELAPSE     4271.67 TCPU     4255.26
 DIIS TEST: 0.88855E-03 AT SCF   CYCLE  13 - DIIS ACTIVE - HISTORY:    13 CYCLES
 TTTTTTTTTTTTTTTTTTTTTTTTTTTTTT FDIK        TELAPSE     4277.48 TCPU     4261.06
 POSSIBLY CONDUCTING STATE - EFERMI(AU) -1.4757284E-01 (RES. CHARGE  1.42E-13;IT.  8)
 TTTTTTTTTTTTTTTTTTTTTTTTTTTTTT PDIG        TELAPSE     4278.59 TCPU     4262.17
 CHARGE NORMALIZATION FACTOR   1.00000000
 TOTAL ATOMIC CHARGES:
  24.5178410  24.5194781  24.5361907  24.5354271  24.5304915  24.5320952
  24.5279130  24.5271075  12.9422166  12.9238888  12.9626790  12.9446716
 SUMMED SPIN DENSITY           0.00000320
 TOTAL ATOMIC SPINS  :
  -0.0000003   0.0000002   0.0000012   0.0000011   0.0000004   0.0000004
   0.0000015   0.0000017  -0.0000025   0.0000089  -0.0000096   0.0000002
 TTTTTTTTTTTTTTTTTTTTTTTTTTTTTT MOQGAD      TELAPSE     4278.61 TCPU     4262.19
 TTTTTTTTTTTTTTTTTTTTTTTTTTTTTT SHELLXN     TELAPSE     4531.32 TCPU     4514.17
 TTTTTTTTTTTTTTTTTTTTTTTTTTTTTT MONMO3      TELAPSE     4568.46 TCPU     4551.20
 NUMERICALLY INTEGRATED DENSITY    124.0000114138    124.0000082167
 TTTTTTTTTTTTTTTTTTTTTTTTTTTTTT NUMDFT      TELAPSE     4571.09 TCPU     4553.83
 CYC  14 ETOT(AU) -2.414543713542E+03 DETOT  7.71E-07 tst  4.88E-06 PX  2.05E-03
 TTTTTTTTTTTTTTTTTTTTTTTTTTTTTT DIIS        TELAPSE     4571.26 TCPU     4553.97
 DIIS TEST: 0.90965E-03 AT SCF   CYCLE  14 - DIIS ACTIVE - HISTORY:    14 CYCLES
 TTTTTTTTTTTTTTTTTTTTTTTTTTTTTT FDIK        TELAPSE     4577.21 TCPU     4559.88
 POSSIBLY CONDUCTING STATE - EFERMI(AU) -1.4757265E-01 (RES. CHARGE  1.66E-10;IT.  4)
 TTTTTTTTTTTTTTTTTTTTTTTTTTTTTT PDIG        TELAPSE     4578.32 TCPU     4560.99
 CHARGE NORMALIZATION FACTOR   1.00000000
 TOTAL ATOMIC CHARGES:
  24.5231165  24.5223376  24.5384718  24.5387458  24.5297274  24.5293884
  24.5219745  24.5217207  12.9329084  12.9330209  12.9539877  12.9546003
 SUMMED SPIN DENSITY           0.00000233
 TOTAL ATOMIC SPINS  :
  -0.0000003   0.0000006   0.0000002   0.0000002  -0.0000000  -0.0000000
   0.0000013   0.0000008  -0.0000015   0.0000071  -0.0000072   0.0000013
 TTTTTTTTTTTTTTTTTTTTTTTTTTTTTT MOQGAD      TELAPSE     4578.34 TCPU     4561.01
 TTTTTTTTTTTTTTTTTTTTTTTTTTTTTT SHELLXN     TELAPSE     4830.62 TCPU     4812.52
 TTTTTTTTTTTTTTTTTTTTTTTTTTTTTT MONMO3      TELAPSE     4867.96 TCPU     4849.72
 NUMERICALLY INTEGRATED DENSITY    124.0000109799    124.0000086498
 TTTTTTTTTTTTTTTTTTTTTTTTTTTTTT NUMDFT      TELAPSE     4870.60 TCPU     4852.35
 CYC  15 ETOT(AU) -2.414543768037E+03 DETOT -5.45E-05 tst  1.28E-06 PX  2.25E-03
 TTTTTTTTTTTTTTTTTTTTTTTTTTTTTT DIIS        TELAPSE     4870.76 TCPU     4852.51
 DIIS TEST: 0.88738E-04 AT SCF   CYCLE  15 - DIIS ACTIVE - HISTORY:    15 CYCLES
 TTTTTTTTTTTTTTTTTTTTTTTTTTTTTT FDIK        TELAPSE     4876.98 TCPU     4858.71
 POSSIBLY CONDUCTING STATE - EFERMI(AU) -1.4756693E-01 (RES. CHARGE  1.45E-11;IT.  6)
 TTTTTTTTTTTTTTTTTTTTTTTTTTTTTT PDIG        TELAPSE     4878.08 TCPU     4859.81
 CHARGE NORMALIZATION FACTOR   1.00000000
 TOTAL ATOMIC CHARGES:
  24.5223389  24.5227226  24.5353749  24.5354667  24.5326005  24.5324853
  24.5215604  24.5221270  12.9332120  12.9329360  12.9548418  12.9543337
 SUMMED SPIN DENSITY           0.00000164
 TOTAL ATOMIC SPINS  :
  -0.0000004   0.0000004  -0.0000000   0.0000004   0.0000005   0.0000002
   0.0000012   0.0000007  -0.0000013   0.0000053  -0.0000058   0.0000006
 TTTTTTTTTTTTTTTTTTTTTTTTTTTTTT MOQGAD      TELAPSE     4878.10 TCPU     4859.83
 TTTTTTTTTTTTTTTTTTTTTTTTTTTTTT SHELLXN     TELAPSE     5130.49 TCPU     5111.34
 TTTTTTTTTTTTTTTTTTTTTTTTTTTTTT MONMO3      TELAPSE     5168.24 TCPU     5148.92
 NUMERICALLY INTEGRATED DENSITY    124.0000106264    124.0000089909
 TTTTTTTTTTTTTTTTTTTTTTTTTTTTTT NUMDFT      TELAPSE     5170.89 TCPU     5151.56
 CYC  16 ETOT(AU) -2.414543770605E+03 DETOT -2.57E-06 tst  1.71E-07 PX  1.02E-03
 TTTTTTTTTTTTTTTTTTTTTTTTTTTTTT DIIS        TELAPSE     5171.06 TCPU     5151.73
 DIIS TEST: 0.35091E-04 AT SCF   CYCLE  16 - DIIS ACTIVE - HISTORY:    16 CYCLES
 TTTTTTTTTTTTTTTTTTTTTTTTTTTTTT FDIK        TELAPSE     5176.60 TCPU     5157.17
 POSSIBLY CONDUCTING STATE - EFERMI(AU) -1.4757427E-01 (RES. CHARGE  2.20E-10;IT.  6)
 TTTTTTTTTTTTTTTTTTTTTTTTTTTTTT PDIG        TELAPSE     5177.73 TCPU     5158.30
 CHARGE NORMALIZATION FACTOR   1.00000000
 TOTAL ATOMIC CHARGES:
  24.5209688  24.5202585  24.5377488  24.5378168  24.5301609  24.5300237
  24.5234078  24.5229077  12.9337162  12.9336936  12.9545043  12.9547928
 SUMMED SPIN DENSITY           0.00000111
 TOTAL ATOMIC SPINS  :
  -0.0000006  -0.0000001   0.0000004   0.0000007   0.0000001  -0.0000002
   0.0000012   0.0000004  -0.0000007   0.0000041  -0.0000043   0.0000002
 TTTTTTTTTTTTTTTTTTTTTTTTTTTTTT MOQGAD      TELAPSE     5177.75 TCPU     5158.32
 TTTTTTTTTTTTTTTTTTTTTTTTTTTTTT SHELLXN     TELAPSE     5430.05 TCPU     5409.67
 TTTTTTTTTTTTTTTTTTTTTTTTTTTTTT MONMO3      TELAPSE     5466.88 TCPU     5446.42
 NUMERICALLY INTEGRATED DENSITY    124.0000103672    124.0000092580
 TTTTTTTTTTTTTTTTTTTTTTTTTTTTTT NUMDFT      TELAPSE     5469.52 TCPU     5449.07
 CYC  17 ETOT(AU) -2.414543771049E+03 DETOT -4.44E-07 tst  1.62E-07 PX  8.39E-04
 TTTTTTTTTTTTTTTTTTTTTTTTTTTTTT DIIS        TELAPSE     5469.68 TCPU     5449.23
 DIIS TEST: 0.23049E-04 AT SCF   CYCLE  17 - DIIS ACTIVE - HISTORY:    17 CYCLES
 TTTTTTTTTTTTTTTTTTTTTTTTTTTTTT FDIK        TELAPSE     5475.62 TCPU     5455.14
 POSSIBLY CONDUCTING STATE - EFERMI(AU) -1.4758153E-01 (RES. CHARGE  3.04E-11;IT.  6)
 TTTTTTTTTTTTTTTTTTTTTTTTTTTTTT PDIG        TELAPSE     5476.72 TCPU     5456.23
 CHARGE NORMALIZATION FACTOR   1.00000000
 TOTAL ATOMIC CHARGES:
  24.5218174  24.5221696  24.5363349  24.5365098  24.5308765  24.5308426
  24.5218694  24.5223700  12.9336057  12.9336797  12.9550355  12.9548887
 SUMMED SPIN DENSITY           0.00000091
 TOTAL ATOMIC SPINS  :
  -0.0000005  -0.0000002   0.0000003   0.0000003   0.0000000  -0.0000004
   0.0000010   0.0000004  -0.0000005   0.0000036  -0.0000036   0.0000004
 TTTTTTTTTTTTTTTTTTTTTTTTTTTTTT MOQGAD      TELAPSE     5476.74 TCPU     5456.25
 TTTTTTTTTTTTTTTTTTTTTTTTTTTTTT SHELLXN     TELAPSE     5728.96 TCPU     5707.76
 TTTTTTTTTTTTTTTTTTTTTTTTTTTTTT MONMO3      TELAPSE     5765.75 TCPU     5744.49
 NUMERICALLY INTEGRATED DENSITY    124.0000102667    124.0000093593
 TTTTTTTTTTTTTTTTTTTTTTTTTTTTTT NUMDFT      TELAPSE     5768.39 TCPU     5747.13
 CYC  18 ETOT(AU) -2.414543772646E+03 DETOT -1.60E-06 tst  9.76E-08 PX  6.63E-04
 TTTTTTTTTTTTTTTTTTTTTTTTTTTTTT DIIS        TELAPSE     5768.56 TCPU     5747.29
 DIIS TEST: 0.14142E-04 AT SCF   CYCLE  18 - DIIS ACTIVE - HISTORY:    18 CYCLES
 TTTTTTTTTTTTTTTTTTTTTTTTTTTTTT FDIK        TELAPSE     5775.01 TCPU     5753.71
 POSSIBLY CONDUCTING STATE - EFERMI(AU) -1.4758078E-01 (RES. CHARGE  0.00E+00;IT.  6)
 TTTTTTTTTTTTTTTTTTTTTTTTTTTTTT PDIG        TELAPSE     5776.11 TCPU     5754.81
 CHARGE NORMALIZATION FACTOR   1.00000000
 TOTAL ATOMIC CHARGES:
  24.5221038  24.5212222  24.5365190  24.5364258  24.5309534  24.5307418
  24.5227075  24.5220111  12.9338932  12.9336046  12.9548084  12.9550092
 SUMMED SPIN DENSITY           0.00000071
 TOTAL ATOMIC SPINS  :
  -0.0000004  -0.0000001   0.0000001   0.0000002   0.0000001  -0.0000002
   0.0000007   0.0000002  -0.0000003   0.0000029  -0.0000028   0.0000003
 TTTTTTTTTTTTTTTTTTTTTTTTTTTTTT MOQGAD      TELAPSE     5776.13 TCPU     5754.83
 TTTTTTTTTTTTTTTTTTTTTTTTTTTTTT SHELLXN     TELAPSE     6028.37 TCPU     6006.33
 TTTTTTTTTTTTTTTTTTTTTTTTTTTTTT MONMO3      TELAPSE     6064.99 TCPU     6042.76
 NUMERICALLY INTEGRATED DENSITY    124.0000101661    124.0000094580
 TTTTTTTTTTTTTTTTTTTTTTTTTTTTTT NUMDFT      TELAPSE     6067.60 TCPU     6045.37
 CYC  19 ETOT(AU) -2.414543772526E+03 DETOT  1.20E-07 tst  8.41E-08 PX  3.08E-04
 TTTTTTTTTTTTTTTTTTTTTTTTTTTTTT DIIS        TELAPSE     6067.77 TCPU     6045.53
 DIIS TEST: 0.28506E-05 AT SCF   CYCLE  19 - DIIS ACTIVE - HISTORY:    19 CYCLES
 TTTTTTTTTTTTTTTTTTTTTTTTTTTTTT FDIK        TELAPSE     6073.36 TCPU     6051.11
 POSSIBLY CONDUCTING STATE - EFERMI(AU) -1.4757797E-01 (RES. CHARGE  1.63E-09;IT. 28)
 TTTTTTTTTTTTTTTTTTTTTTTTTTTTTT PDIG        TELAPSE     6074.47 TCPU     6052.22
 CHARGE NORMALIZATION FACTOR   1.00000000
 TOTAL ATOMIC CHARGES:
  24.5206688  24.5222233  24.5365293  24.5368458  24.5304200  24.5306787
  24.5216689  24.5231247  12.9336558  12.9341186  12.9552332  12.9548330
 SUMMED SPIN DENSITY           0.00021705
 TOTAL ATOMIC SPINS  :
   0.0000265   0.0000263   0.0000103   0.0000103   0.0000121   0.0000117
   0.0000226   0.0000218   0.0000254   0.0000273   0.0000103   0.0000125
 TTTTTTTTTTTTTTTTTTTTTTTTTTTTTT MOQGAD      TELAPSE     6074.49 TCPU     6052.24
 TTTTTTTTTTTTTTTTTTTTTTTTTTTTTT SHELLXN     TELAPSE     6326.49 TCPU     6303.48
 TTTTTTTTTTTTTTTTTTTTTTTTTTTTTT MONMO3      TELAPSE     6363.17 TCPU     6340.07
 NUMERICALLY INTEGRATED DENSITY    124.0001183398    123.9999012869
 TTTTTTTTTTTTTTTTTTTTTTTTTTTTTT NUMDFT      TELAPSE     6365.80 TCPU     6342.63
 CYC  20 ETOT(AU) -2.414543772100E+03 DETOT  4.26E-07 tst  2.79E-07 PX  4.57E-04
 TTTTTTTTTTTTTTTTTTTTTTTTTTTTTT DIIS        TELAPSE     6365.97 TCPU     6342.80
 DIIS TEST: 0.62711E-05 AT SCF   CYCLE  20 - DIIS ACTIVE - HISTORY:    20 CYCLES
 TTTTTTTTTTTTTTTTTTTTTTTTTTTTTT FDIK        TELAPSE     6371.41 TCPU     6348.22
 POSSIBLY CONDUCTING STATE - EFERMI(AU) -1.4758520E-01 (RES. CHARGE  2.95E-11;IT.  6)
 TTTTTTTTTTTTTTTTTTTTTTTTTTTTTT PDIG        TELAPSE     6372.52 TCPU     6349.32
 CHARGE NORMALIZATION FACTOR   1.00000000
 TOTAL ATOMIC CHARGES:
  24.5216544  24.5216383  24.5364025  24.5364133  24.5306952  24.5306886
  24.5222713  24.5222722  12.9338893  12.9338939  12.9550876  12.9550935
 SUMMED SPIN DENSITY           0.00002769
 TOTAL ATOMIC SPINS  :
   0.0000042   0.0000042   0.0000005   0.0000006   0.0000005   0.0000002
   0.0000044   0.0000038   0.0000036   0.0000053  -0.0000008   0.0000011
 TTTTTTTTTTTTTTTTTTTTTTTTTTTTTT MOQGAD      TELAPSE     6372.53 TCPU     6349.34
 TTTTTTTTTTTTTTTTTTTTTTTTTTTTTT SHELLXN     TELAPSE     6626.77 TCPU     6600.84
 TTTTTTTTTTTTTTTTTTTTTTTTTTTTTT MONMO3      TELAPSE     6663.88 TCPU     6637.89
 NUMERICALLY INTEGRATED DENSITY    124.0000236565    123.9999959702
 TTTTTTTTTTTTTTTTTTTTTTTTTTTTTT NUMDFT      TELAPSE     6666.52 TCPU     6640.52
 CYC  21 ETOT(AU) -2.414543772761E+03 DETOT -6.61E-07 tst  1.29E-07 PX  3.03E-04
 TTTTTTTTTTTTTTTTTTTTTTTTTTTTTT DIIS        TELAPSE     6666.69 TCPU     6640.69
 DIIS TEST: 0.93033E-06 AT SCF   CYCLE  21 - DIIS ACTIVE - HISTORY:    21 CYCLES
 TTTTTTTTTTTTTTTTTTTTTTTTTTTTTT FDIK        TELAPSE     6674.30 TCPU     6648.28
 POSSIBLY CONDUCTING STATE - EFERMI(AU) -1.4758482E-01 (RES. CHARGE  6.60E-10;IT.  4)
 TTTTTTTTTTTTTTTTTTTTTTTTTTTTTT PDIG        TELAPSE     6675.47 TCPU     6649.45
 CHARGE NORMALIZATION FACTOR   1.00000000
 TOTAL ATOMIC CHARGES:
  24.5216123  24.5216137  24.5364478  24.5364481  24.5306764  24.5306656
  24.5222821  24.5222943  12.9339139  12.9339121  12.9550684  12.9550654
 SUMMED SPIN DENSITY           0.00001753
 TOTAL ATOMIC SPINS  :
   0.0000027   0.0000028   0.0000002   0.0000003   0.0000001   0.0000000
   0.0000030   0.0000027   0.0000024   0.0000038  -0.0000011   0.0000004
 TTTTTTTTTTTTTTTTTTTTTTTTTTTTTT MOQGAD      TELAPSE     6675.49 TCPU     6649.47
 TTTTTTTTTTTTTTTTTTTTTTTTTTTTTT SHELLXN     TELAPSE     6927.95 TCPU     6901.16
 TTTTTTTTTTTTTTTTTTTTTTTTTTTTTT MONMO3      TELAPSE     6968.50 TCPU     6941.60
 NUMERICALLY INTEGRATED DENSITY    124.0000185765    124.0000010492
 TTTTTTTTTTTTTTTTTTTTTTTTTTTTTT NUMDFT      TELAPSE     6971.17 TCPU     6944.27
 CYC  22 ETOT(AU) -2.414543772745E+03 DETOT  1.59E-08 tst  9.45E-11 PX  1.60E-05
 TTTTTTTTTTTTTTTTTTTTTTTTTTTTTT DIIS        TELAPSE     6971.34 TCPU     6944.43
 DIIS TEST: 0.95844E-08 AT SCF   CYCLE  22 - DIIS ACTIVE - HISTORY:    22 CYCLES
 TTTTTTTTTTTTTTTTTTTTTTTTTTTTTT FDIK        TELAPSE     6977.74 TCPU     6950.80
 POSSIBLY CONDUCTING STATE - EFERMI(AU) -1.4758520E-01 (RES. CHARGE  6.54E-10;IT.  4)
 TTTTTTTTTTTTTTTTTTTTTTTTTTTTTT PDIG        TELAPSE     6978.85 TCPU     6951.91
 CHARGE NORMALIZATION FACTOR   1.00000000
 TOTAL ATOMIC CHARGES:
  24.5215994  24.5215936  24.5364277  24.5364328  24.5306620  24.5306658
  24.5223021  24.5222998  12.9339139  12.9339130  12.9550934  12.9550964
 SUMMED SPIN DENSITY           0.00000573
 TOTAL ATOMIC SPINS  :
   0.0000010   0.0000011  -0.0000001  -0.0000000  -0.0000001  -0.0000002
   0.0000013   0.0000012   0.0000010   0.0000018  -0.0000011  -0.0000002
 TTTTTTTTTTTTTTTTTTTTTTTTTTTTTT MOQGAD      TELAPSE     6978.87 TCPU     6951.93
 TTTTTTTTTTTTTTTTTTTTTTTTTTTTTT SHELLXN     TELAPSE     7231.20 TCPU     7203.61
 +++ ENERGIES IN A.U. +++
 ::: EXT EL-POLE                                  -7.1272230611872E+03
 ::: EXT EL-SPHEROPOLE                             9.3399380377152E+01
 ::: BIELET ZONE E-E                               7.7657696419667E+03
 ::: TOTAL E-E                                     7.3194596115672E+02
 ::: TOTAL E-N + N-E                              -2.5231683140378E+03
 ::: TOTAL N-N                                    -1.3831225976073E+03
 ::: KINETIC ENERGY                                9.1512458804531E+02
 ::: PSEUDO TOTAL   ENERGY                        -2.2592203624431E+03
 ::: VIRIAL COEFFICIENT                            5.7657538945445E-01
 TTTTTTTTTTTTTTTTTTTTTTTTTTTTTT MONMO3      TELAPSE     7271.84 TCPU     7244.16
 NUMERICALLY INTEGRATED DENSITY    124.0000126769    124.0000069496
 TTTTTTTTTTTTTTTTTTTTTTTTTTTTTT NUMDFT      TELAPSE     7274.47 TCPU     7246.77
 CYC  23 ETOT(AU) -2.414543772748E+03 DETOT -3.12E-09 tst  7.91E-11 PX  1.60E-05

 == SCF ENDED - CONVERGENCE ON ENERGY      E(AU) -2.4145437727483E+03 CYCLES  23


 ENERGY EXPRESSION=HARTREE+FOCK EXCH*0.00000+(HSE06      EXCH)*1.00000+PBE        CORR


 TOTAL ENERGY(DFT)(AU)( 23) -2.4145437727483E+03 DE-3.1E-09 tester 7.9E-11
 TTTTTTTTTTTTTTTTTTTTTTTTTTTTTT EDFT        TELAPSE     7274.48 TCPU     7246.78

 *******************************************************************************
 *                             FORCE CALCULATION                               *
 *******************************************************************************

 TTTTTTTTTTTTTTTTTTTTTTTTTTTTTT NUMDFG      TELAPSE     7291.14 TCPU     7263.38
 INFORMATION **** GENPOG **** BIPO BUFFER LENGTH (WORDS) =     1394600
 TTTTTTTTTTTTTTTTTTTTTTTTTTTTTT SHELXG      TELAPSE     9596.81 TCPU     9562.43


 D3 DISPERSION ENERGY (AU)       -3.5144487110728E-01
 TOTAL ENERGY + DISP (AU)        -2.4148952176194E+03

 CARTESIAN FORCES IN HARTREE/BOHR (ANALYTICAL)
   ATOM                     X                   Y                   Z
   1 252             6.357470541822E-08 -7.130957212336E-04 -1.091957790065E-03
   2 252             2.259825529549E-08  7.128078333365E-04 -1.092442549313E-03
   3 252             4.711832017978E-08 -2.838806861423E-04 -1.145438252525E-03
   4 252             4.160652927232E-09  2.838869827593E-04 -1.145977008200E-03
   5 252             6.119950559346E-09  2.731289116552E-04  1.382722935322E-03
   6 252            -1.574397132648E-08 -2.731727885984E-04  1.383025106740E-03
   7 252            -1.805677481617E-09  6.077801502596E-04  1.056608524028E-03
   8 252            -4.102607919738E-08 -6.072810408271E-04  1.055856382983E-03
   9 274            -9.618984894891E-09 -4.851691285751E-04  4.912713728704E-04
  10 274            -2.436223876888E-08  4.856605363469E-04  4.912618966703E-04
  11 274            -2.874377040584E-08 -3.929196009294E-04 -6.925910369129E-04
  12 274            -2.227136974995E-08  3.922545517898E-04 -6.923395821079E-04

 RESULTANT FORCE    -2.074449742631E-13 -1.584843367652E-13 -5.092176680321E-13

 ATOMIC PART

 SYMMETRY ALLOWED FORCES (ANALYTICAL) (DIRECTION, FORCE)

    1  6.6401632E-08    2 -7.4480419E-04    3 -1.1405127E-03    4  2.9762880E-08
    5  6.7960815E-04    6 -1.2498775E-03    7  5.8750520E-08    8 -2.9926686E-04
    9 -1.4376539E-03   10  2.0121591E-08   11  2.6761803E-04   12 -1.6079174E-03
   13  2.4910317E-08   14  2.9194946E-04   15  8.8008698E-04   16  5.1482221E-09
   17 -2.5295908E-04   18  1.0165633E-03   19  2.1360094E-08   20  6.6573037E-04
   21  8.4524245E-04   22 -1.7689076E-08   23 -5.4312985E-04   24  1.0343654E-03
   25  1.3429290E-08   26 -5.6017493E-04   27  6.8343343E-04   28  9.3515910E-10
   29  3.9681167E-04   30  9.6650922E-04   31 -4.5766784E-09   32 -5.5520197E-04
   33 -1.7780540E-07

 CELL PART

 GRADIENT WITH RESPECT TO THE CELL PARAMETER IN HARTREE/BOHR
ORDER: -D/DA1X, -D/DA1Y, -D/DA1Z
       -D/DA2X, -D/DA2Y, -D/DA2Z
       -D/DA3X, -D/DA3Y, -D/DA3Z
  0.621092085851E-05 -0.207239880484E-07 -0.121334306685E-06
 -0.223931040323E-07  0.571601972261E-03  0.132482877242E-06
 -0.278128547600E-07  0.651741652853E-07  0.757058752118E-03

STRESS TENSOR, IN HARTREE/BOHR^3:
ORDER: 11 12 13
       21 22 23
       31 32 33
 -0.216820744846E-07  0.140842976959E-09  0.371502926972E-09
  0.723466073259E-10 -0.359513014777E-05 -0.870546852359E-09
  0.423573176185E-09 -0.833260221533E-09 -0.101122141085E-04

PRESSURE FROM THE STRESS TENSOR,
IN HARTREE/BOHR^3:  0.45763E-05
PRESSURE IN GIGAPASCAL:  0.1346E+00
CONVERSION FACTOR: 1 HARTREE/BOHR^3= 29421 GIGAPASCAL
WHEN USING VALUES FOR BOHR RADIUS AND HARTREE
FROM IUPAC WEBSITE, APRIL 2009
ENTHALPY: -2.4148867672192E+03

 SYMMETRY ALLOWED FORCES (ANALYTICAL) (DIRECTION, FORCE)

    1  8.7033349E-04    2 -7.8410398E-04    3 -2.9399070E-08    4 -4.2920824E-04
    5 -5.4283370E-08    6  1.1221093E-07
 TTTTTTTTTTTTTTTTTTTTTTTTTTTTTT TOTGRA_C    TELAPSE     9979.39 TCPU     9944.10
 INFORMATION **** optc001 **** GEOMETRY OUTPUT FILE
 CLASSICAL MODEL (SCHLEGEL) USED AS INITIAL HESSIAN MATRIX
 REFERENCE GEOMETRY DEFINED

 MAX GRADIENT      0.001608  THRESHOLD              0.000450 CONVERGED NO
 RMS GRADIENT      0.000658  THRESHOLD              0.000300 CONVERGED NO

 GRADIENT NORM     0.004112  GRADIENT THRESHOLD     0.500000

 EIGENVALUES OF THE ESTIMATED HESSIAN
  0.9073E-02  0.1182E-01  0.1322E-01  0.1596E-01  0.1692E-01  0.1791E-01
  0.6362E-01  0.8255E-01  0.1228      0.1369      0.1428      0.1500    
  0.1725      0.1782      0.1895      0.1914      0.1927      0.1966    
  0.2020      0.2200      0.2243      0.2272      0.2364      0.2621    
  0.2758      0.3056      0.3817      0.5845      0.6184      0.6353    
  0.6828      0.7302      0.7356      0.7445      0.7584      0.7870    
  0.7923      0.7998      0.8060    

 INITIAL TRUST RADIUS    0.5000000000E+00

 PREDICTED ENERGY CHANGE    -0.328E-04

 INITIAL DISPLACEMENTS
 -0.001365 -0.005216 -0.008609  0.001519  0.004234 -0.010283  0.001532  0.000889
 -0.010251 -0.001054 -0.001466 -0.010567  0.001543  0.003536  0.003489 -0.001836
 -0.002460  0.005182 -0.001710  0.002651  0.006459  0.001312 -0.001843  0.007041
  0.001684  0.000883  0.000063 -0.001315 -0.000496  0.001107 -0.002059 -0.001825
  0.000538 -0.013035  0.001557  0.000180  0.021686  0.000378 -0.001161
 TTTTTTTTTTTTTTTTTTTTTTTTTTTTTT OPTI        TELAPSE     9979.75 TCPU     9944.38

 OPTOPTOPTOPTOPTOPTOPTOPTOPTOPTOPTOPTOPTOPTOPTOPTOPTOPTOPTOPTOPTOPTOPTOPTOPTOPT

 - INFORMATION ON SCF MOVED TO SCFOUT.LOG
 GEOMETRY OPTIMIZATION INFORMATION STORED IN OPTINFO.DAT

 OPTOPTOPTOPTOPTOPTOPTOPTOPTOPTOPTOPTOPTOPTOPTOPTOPTOPTOPTOPTOPTOPTOPTOPTOPTOPT
 *******************************************************************************
 COORDINATE AND CELL OPTIMIZATION - POINT    2
 *******************************************************************************
 LATTICE PARAMETERS (ANGSTROMS AND DEGREES) - BOHR = 0.5291772083 ANGSTROM
 PRIMITIVE CELL - CENTRING CODE 1/0 VOLUME=   273.261693 - DENSITY 10.787 g/cm^3
         A              B              C           ALPHA      BETA       GAMMA 
     3.40998466     6.14753986    13.03541843    90.004746  89.998398  89.998459
 *******************************************************************************
 ATOMS IN THE ASYMMETRIC UNIT   12 - ATOMS IN THE UNIT CELL:   12
     ATOM                 X/A                 Y/B                 Z/C    
 *******************************************************************************
      1 T 252 TE    4.997972570190E-01 -2.210799809407E-01 -1.017411792838E-01
      2 T 252 TE    2.430567269450E-04  2.210366492917E-01  3.982258683085E-01
      3 T 252 TE   -4.997785484224E-01 -2.865440589182E-01  3.507698552081E-01
      4 T 252 TE   -1.832633180538E-04  2.864982297634E-01 -1.491959703776E-01
      5 T 252 TE    2.140840273972E-04 -1.307380803057E-01 -3.355702634248E-01
      6 T 252 TE    4.996945339588E-01  1.308083637170E-01  1.644730335410E-01
      7 T 252 TE   -2.400402592338E-04 -3.675864823001E-01  1.166041695333E-01
      8 T 252 TE   -4.997673195498E-01  3.676175526775E-01 -3.834273858618E-01
      9 T 274 W    -4.997687490812E-01 -2.550220172975E-02 -4.845603360556E-01
     10 T 274 W    -2.368953378645E-04  2.550513641935E-02  1.547338115535E-02
     11 T 274 W     4.997870547243E-01  3.867422991561E-01 -2.201665227927E-04
     12 T 274 W     2.388295121829E-04 -3.867574268306E-01  4.997489937801E-01

 T = ATOM BELONGING TO THE ASYMMETRIC UNIT

 TOTAL ENERGY(DFT)(AU)(  7) -2.4148952461229E+03     DE (AU)   -2.850E-05

 UPDATED TRUST RADIUS     0.100E+01

 SYMMETRY ALLOWED FORCES  (COORDINATE, FORCE)

    1  1.1698317E-05    2 -2.9748785E-04    3 -1.1538235E-04    4 -2.5557696E-05
    5  2.7504649E-04    6 -9.5517475E-05    7  4.5942353E-07    8 -2.5586021E-04
    9 -3.6301072E-04   10  5.1785406E-06   11  2.2640560E-04   12 -4.2692376E-04
   13 -7.2834725E-06   14 -4.4576986E-05   15  4.7852517E-04   16  4.7013985E-05
   17  1.9387314E-05   18  4.8885827E-04   19  2.2196063E-05   20  9.8492673E-05
   21  8.2495276E-05   22 -6.6744497E-06   23 -8.6556968E-05   24  1.3628235E-04
   25 -1.1686129E-05   26 -3.0126942E-04   27  1.4654021E-06   28  1.3291622E-05
   29  2.0385242E-04   30  5.1502688E-05   31  1.6001729E-05   32 -5.4206463E-04
   33  3.1532612E-05   34  1.5306315E-04   35 -2.5410472E-04   36 -2.4432748E-05
   37 -3.2284181E-04   38  1.0893842E-06   39  3.7308354E-06

 GRADIENT NORM     0.001326  GRADIENT THRESHOLD     0.500000

 EIGENVALUES OF THE ESTIMATED HESSIAN
  0.9177E-02  0.1164E-01  0.1330E-01  0.1655E-01  0.1791E-01  0.1838E-01
  0.6195E-01  0.8224E-01  0.1228      0.1367      0.1427      0.1500    
  0.1725      0.1776      0.1788      0.1898      0.1915      0.1965    
  0.2020      0.2199      0.2267      0.2288      0.2362      0.2666    
  0.2758      0.2999      0.3219      0.5845      0.6184      0.6353    
  0.6827      0.7302      0.7357      0.7442      0.7584      0.7760    
  0.7899      0.8050      0.8069    

 PREDICTED ENERGY CHANGE    -0.379E-05

 MAX GRADIENT      0.000542  THRESHOLD              0.000450 CONVERGED NO
 RMS GRADIENT      0.000212  THRESHOLD              0.000300 CONVERGED YES
 MAX DISPLAC.      0.004530  THRESHOLD              0.001800 CONVERGED NO
 RMS DISPLAC.      0.001873  THRESHOLD              0.001200 CONVERGED NO
 TTTTTTTTTTTTTTTTTTTTTTTTTTTTTT OPTI        TELAPSE    15198.50 TCPU    15146.41
 *******************************************************************************
 COORDINATE AND CELL OPTIMIZATION - POINT    3
 *******************************************************************************
 LATTICE PARAMETERS (ANGSTROMS AND DEGREES) - BOHR = 0.5291772083 ANGSTROM
 PRIMITIVE CELL - CENTRING CODE 1/0 VOLUME=   273.263725 - DENSITY 10.786 g/cm^3
         A              B              C           ALPHA      BETA       GAMMA 
     3.40921845     6.14729328    13.03896806    90.004216  89.999084  90.001635
 *******************************************************************************
 ATOMS IN THE ASYMMETRIC UNIT   12 - ATOMS IN THE UNIT CELL:   12
     ATOM                 X/A                 Y/B                 Z/C    
 *******************************************************************************
      1 T 252 TE   -4.999538976830E-01 -2.214534193172E-01 -1.017700027352E-01
      2 T 252 TE   -3.527604145963E-05  2.214138321018E-01  3.982215399189E-01
      3 T 252 TE   -4.999586795199E-01 -2.864634683892E-01  3.507460841561E-01
      4 T 252 TE    3.348231643668E-06  2.864083573956E-01 -1.492365854332E-01
      5 T 252 TE    2.597395406367E-05 -1.306038475128E-01 -3.355028760184E-01
      6 T 252 TE    4.999018088838E-01  1.306833927484E-01  1.645222866684E-01
[...]

 ATOM A   6 TE   ATOM B     CELL      R(AB)/AU R(AB)/ANG    OVPOP(AB)
                 11 W    (  0  0  0)     5.031     2.662     0.128
                 10 W    (  0  0  0)     5.036     2.665     0.131
                 10 W    (  1  0  0)     5.037     2.665     0.131
                  6 TE   ( -1  0  0)     6.442     3.409     0.034
                  3 TE   (  0  0  0)     6.673     3.531     0.029
                  2 TE   (  0  0  0)     6.682     3.536     0.031

 ATOM A   7 TE   ATOM B     CELL      R(AB)/AU R(AB)/ANG    OVPOP(AB)
                 11 W    ( -1 -1  0)     5.178     2.740     0.110
                 11 W    (  0 -1  0)     5.178     2.740     0.110
                 10 W    (  0  0  0)     5.202     2.753     0.103
                  7 TE   ( -1  0  0)     6.442     3.409     0.034
                  1 TE   (  0  0  0)     6.497     3.438     0.042
                  1 TE   ( -1  0  0)     6.497     3.438     0.042

 ATOM A   8 TE   ATOM B     CELL      R(AB)/AU R(AB)/ANG    OVPOP(AB)
                 12 W    (  0  1 -1)     5.178     2.740     0.110
                 12 W    (  1  1 -1)     5.178     2.740     0.110
                  9 W    (  0  0  0)     5.202     2.753     0.103
                  8 TE   ( -1  0  0)     6.442     3.409     0.034
                  2 TE   (  1  0 -1)     6.497     3.438     0.042
                  2 TE   (  0  0 -1)     6.497     3.438     0.042

 ATOM A   9 W    ATOM B     CELL      R(AB)/AU R(AB)/ANG    OVPOP(AB)
                  5 TE   (  0  0  0)     5.036     2.665     0.131
                  5 TE   (  1  0  0)     5.036     2.665     0.131
                  3 TE   (  0  0 -1)     5.067     2.681     0.128
                  2 TE   (  1  0 -1)     5.190     2.746     0.110
                  2 TE   (  0  0 -1)     5.190     2.747     0.110
                  8 TE   (  0  0  0)     5.202     2.753     0.103

 ATOM A  10 W    ATOM B     CELL      R(AB)/AU R(AB)/ANG    OVPOP(AB)
                  6 TE   (  0  0  0)     5.036     2.665     0.131
                  6 TE   ( -1  0  0)     5.037     2.665     0.131
                  4 TE   (  0  0  0)     5.067     2.681     0.128
                  1 TE   ( -1  0  0)     5.190     2.747     0.110
                  1 TE   (  0  0  0)     5.190     2.747     0.110
                  7 TE   (  0  0  0)     5.202     2.753     0.103

 ATOM A  11 W    ATOM B     CELL      R(AB)/AU R(AB)/ANG    OVPOP(AB)
                  4 TE   (  1  0  0)     5.021     2.657     0.132
                  4 TE   (  0  0  0)     5.021     2.657     0.132
                  6 TE   (  0  0  0)     5.031     2.662     0.128
                  7 TE   (  1  1  0)     5.178     2.740     0.110
                  7 TE   (  0  1  0)     5.178     2.740     0.110
                  1 TE   (  0  1  0)     5.196     2.750     0.099

 ATOM A  12 W    ATOM B     CELL      R(AB)/AU R(AB)/ANG    OVPOP(AB)
                  3 TE   ( -1  0  0)     5.021     2.657     0.132
                  3 TE   (  0  0  0)     5.021     2.657     0.132
                  5 TE   (  0  0  1)     5.031     2.662     0.128
                  8 TE   (  0 -1  1)     5.178     2.740     0.110
                  8 TE   ( -1 -1  1)     5.178     2.740     0.110
                  2 TE   (  0 -1  0)     5.196     2.750     0.099
 TTTTTTTTTTTTTTTTTTTTTTTTTTTTTT AFTER FIRST TELAPSE    35449.74 TCPU    35300.37
 MMMMMMMMMMMMMMMMMMMMMMMMMMMMMMMMMMMMMMMMMMMMMMMMMMMMMMMMMMMMMMMMMMMMMMMMMMMMMMM
     ALPHA-BETA ELECTRONS
 MULLIKEN POPULATION ANALYSIS - NO. OF ELECTRONS    0.000000

  ATOM    Z CHARGE  A.O. POPULATION

   1 TE 252 -0.000  0.000 -0.000 -0.000  0.000 -0.000 -0.000 -0.000  0.000
                    0.000  0.000 -0.000 -0.000 -0.000 -0.000 -0.000 -0.000
                    0.000  0.000  0.000  0.000  0.000 -0.000 -0.000 -0.000
                   -0.000 -0.000  0.000 -0.000 -0.000 -0.000 -0.000 -0.000
                   -0.000 -0.000  0.000  0.000
   2 TE 252 -0.000  0.000  0.000 -0.000  0.000 -0.000 -0.000 -0.000  0.000
                    0.000  0.000 -0.000 -0.000 -0.000 -0.000 -0.000 -0.000
                    0.000  0.000  0.000  0.000  0.000 -0.000 -0.000 -0.000
                   -0.000 -0.000  0.000  0.000 -0.000 -0.000 -0.000 -0.000
                   -0.000 -0.000 -0.000 -0.000
   3 TE 252  0.000 -0.000  0.000 -0.000 -0.000  0.000  0.000  0.000 -0.000
                   -0.000 -0.000 -0.000 -0.000  0.000  0.000  0.000  0.000
                   -0.000 -0.000 -0.000  0.000  0.000  0.000  0.000  0.000
                   -0.000 -0.000 -0.000  0.000  0.000  0.000  0.000  0.000
                   -0.000  0.000 -0.000 -0.000
   4 TE 252  0.000  0.000 -0.000  0.000  0.000 -0.000  0.000  0.000  0.000
                    0.000 -0.000 -0.000  0.000  0.000  0.000 -0.000 -0.000
                   -0.000 -0.000 -0.000 -0.000  0.000  0.000  0.000  0.000
                   -0.000 -0.000 -0.000 -0.000 -0.000  0.000 -0.000  0.000
                   -0.000  0.000 -0.000 -0.000
   5 TE 252 -0.000 -0.000  0.000  0.000 -0.000  0.000  0.000  0.000  0.000
                   -0.000 -0.000 -0.000  0.000  0.000  0.000 -0.000  0.000
                   -0.000  0.000 -0.000 -0.000 -0.000  0.000 -0.000 -0.000
                   -0.000 -0.000  0.000  0.000  0.000  0.000  0.000 -0.000
                   -0.000 -0.000 -0.000  0.000
   6 TE 252 -0.000  0.000 -0.000  0.000 -0.000 -0.000  0.000 -0.000  0.000
                   -0.000  0.000 -0.000 -0.000 -0.000 -0.000 -0.000  0.000
                    0.000  0.000 -0.000 -0.000 -0.000 -0.000 -0.000 -0.000
                   -0.000  0.000  0.000  0.000  0.000  0.000 -0.000 -0.000
                   -0.000 -0.000 -0.000 -0.000
   7 TE 252  0.000 -0.000  0.000 -0.000 -0.000  0.000  0.000  0.000 -0.000
                   -0.000 -0.000  0.000  0.000  0.000  0.000  0.000  0.000
                   -0.000 -0.000 -0.000 -0.000 -0.000  0.000  0.000  0.000
                    0.000  0.000 -0.000  0.000 -0.000  0.000  0.000  0.000
                    0.000  0.000 -0.000  0.000
   8 TE 252  0.000  0.000 -0.000  0.000 -0.000  0.000  0.000  0.000 -0.000
                   -0.000 -0.000  0.000  0.000  0.000  0.000  0.000  0.000
                   -0.000 -0.000 -0.000 -0.000 -0.000  0.000  0.000 -0.000
                    0.000  0.000  0.000  0.000  0.000 -0.000  0.000 -0.000
                    0.000  0.000 -0.000 -0.000
   9 W  274  0.000  0.000 -0.000  0.000 -0.000  0.000  0.000  0.000  0.000
                    0.000  0.000 -0.000 -0.000 -0.000  0.000  0.000  0.000
                    0.000  0.000 -0.000 -0.000 -0.000 -0.000 -0.000  0.000
                    0.000  0.000  0.000  0.000 -0.000  0.000  0.000  0.000
                    0.000  0.000  0.000
  10 W  274  0.000  0.000 -0.000  0.000 -0.000  0.000  0.000  0.000  0.000
                    0.000  0.000 -0.000 -0.000 -0.000  0.000  0.000  0.000
                    0.000  0.000 -0.000 -0.000 -0.000 -0.000 -0.000  0.000
                    0.000  0.000  0.000  0.000  0.000  0.000  0.000 -0.000
                    0.000  0.000 -0.000
  11 W  274 -0.000 -0.000  0.000 -0.000  0.000  0.000 -0.000  0.000 -0.000
                    0.000  0.000 -0.000 -0.000 -0.000 -0.000 -0.000 -0.000
                   -0.000 -0.000 -0.000 -0.000 -0.000  0.000  0.000 -0.000
                   -0.000 -0.000 -0.000 -0.000  0.000 -0.000  0.000 -0.000
                    0.000  0.000  0.000
  12 W  274 -0.000 -0.000  0.000 -0.000  0.000  0.000 -0.000 -0.000  0.000
                    0.000 -0.000 -0.000 -0.000  0.000  0.000 -0.000 -0.000
                   -0.000 -0.000 -0.000 -0.000  0.000  0.000 -0.000  0.000
                    0.000 -0.000 -0.000  0.000 -0.000  0.000  0.000  0.000
                   -0.000  0.000  0.000

  ATOM    Z CHARGE  SHELL POPULATION

   1 TE 252 -0.000  0.000 -0.000 -0.000  0.000 -0.000  0.000 -0.000 -0.000
                    0.000 -0.000 -0.000 -0.000
   2 TE 252 -0.000  0.000  0.000 -0.000  0.000 -0.000  0.000 -0.000 -0.000
                    0.000 -0.000 -0.000 -0.000
   3 TE 252  0.000 -0.000  0.000 -0.000 -0.000  0.000 -0.000 -0.000  0.000
                   -0.000  0.000  0.000 -0.000
   4 TE 252  0.000  0.000 -0.000  0.000  0.000 -0.000  0.000  0.000  0.000
                   -0.000  0.000 -0.000  0.000
   5 TE 252 -0.000 -0.000  0.000  0.000 -0.000  0.000  0.000 -0.000  0.000
                   -0.000 -0.000  0.000 -0.000
   6 TE 252 -0.000  0.000 -0.000  0.000 -0.000 -0.000  0.000 -0.000 -0.000
                    0.000 -0.000  0.000 -0.000
   7 TE 252  0.000 -0.000  0.000 -0.000 -0.000  0.000 -0.000  0.000  0.000
                   -0.000  0.000  0.000  0.000
   8 TE 252  0.000  0.000 -0.000  0.000 -0.000  0.000 -0.000  0.000  0.000
                   -0.000  0.000  0.000  0.000
   9 W  274  0.000  0.000 -0.000  0.000 -0.000  0.000  0.000 -0.000  0.000
                   -0.000  0.000  0.000
  10 W  274  0.000  0.000 -0.000  0.000 -0.000  0.000  0.000 -0.000  0.000
                   -0.000  0.000  0.000
  11 W  274 -0.000 -0.000  0.000 -0.000  0.000  0.000  0.000 -0.000 -0.000
                   -0.000 -0.000  0.000
  12 W  274 -0.000 -0.000  0.000 -0.000  0.000 -0.000  0.000 -0.000 -0.000
                   -0.000  0.000  0.000

 OVERLAP POPULATION CONDENSED TO ATOMS FOR FIRST   6 NEIGHBORS

 ATOM A   1 TE   ATOM B     CELL      R(AB)/AU R(AB)/ANG    OVPOP(AB)
                 10 W    (  1  0  0)     5.190     2.747     0.000
                 10 W    (  0  0  0)     5.190     2.747     0.000
                 11 W    (  0 -1  0)     5.196     2.750     0.000
                  1 TE   ( -1  0  0)     6.442     3.409     0.000
                  7 TE   (  0  0  0)     6.497     3.438    -0.000
                  7 TE   (  1  0  0)     6.497     3.438    -0.000

 ATOM A   2 TE   ATOM B     CELL      R(AB)/AU R(AB)/ANG    OVPOP(AB)
                  9 W    ( -1  0  1)     5.190     2.746     0.000
                  9 W    (  0  0  1)     5.190     2.747     0.000
                 12 W    (  0  1  0)     5.196     2.750     0.000
                  2 TE   ( -1  0  0)     6.442     3.409     0.000
                  8 TE   ( -1  0  1)     6.497     3.438    -0.000
                  8 TE   (  0  0  1)     6.497     3.438    -0.000

 ATOM A   3 TE   ATOM B     CELL      R(AB)/AU R(AB)/ANG    OVPOP(AB)
                 12 W    (  1  0  0)     5.021     2.657    -0.000
                 12 W    (  0  0  0)     5.021     2.657     0.000
                  9 W    (  0  0  1)     5.067     2.681     0.000
                  3 TE   ( -1  0  0)     6.442     3.409    -0.000
                  2 TE   (  1 -1  0)     6.664     3.527    -0.000
                  2 TE   (  0 -1  0)     6.665     3.527     0.000

 ATOM A   4 TE   ATOM B     CELL      R(AB)/AU R(AB)/ANG    OVPOP(AB)
                 11 W    ( -1  0  0)     5.021     2.657    -0.000
                 11 W    (  0  0  0)     5.021     2.657    -0.000
                 10 W    (  0  0  0)     5.067     2.681     0.000
                  4 TE   ( -1  0  0)     6.442     3.409    -0.000
                  1 TE   ( -1  1  0)     6.665     3.527    -0.000
                  1 TE   (  0  1  0)     6.665     3.527     0.000

 ATOM A   5 TE   ATOM B     CELL      R(AB)/AU R(AB)/ANG    OVPOP(AB)
                 12 W    (  0  0 -1)     5.031     2.662     0.000
                  9 W    (  0  0  0)     5.036     2.665     0.000
                  9 W    ( -1  0  0)     5.036     2.665     0.000
                  5 TE   ( -1  0  0)     6.442     3.409    -0.000
                  4 TE   (  0  0  0)     6.672     3.531    -0.000
                  1 TE   (  0  0  0)     6.683     3.536    -0.000

 ATOM A   6 TE   ATOM B     CELL      R(AB)/AU R(AB)/ANG    OVPOP(AB)
                 11 W    (  0  0  0)     5.031     2.662     0.000
                 10 W    (  0  0  0)     5.036     2.665     0.000
                 10 W    (  1  0  0)     5.037     2.665     0.000
                  6 TE   ( -1  0  0)     6.442     3.409    -0.000
                  3 TE   (  0  0  0)     6.673     3.531    -0.000
                  2 TE   (  0  0  0)     6.682     3.536     0.000

 ATOM A   7 TE   ATOM B     CELL      R(AB)/AU R(AB)/ANG    OVPOP(AB)
                 11 W    ( -1 -1  0)     5.178     2.740    -0.000
                 11 W    (  0 -1  0)     5.178     2.740    -0.000
                 10 W    (  0  0  0)     5.202     2.753     0.000
                  7 TE   ( -1  0  0)     6.442     3.409    -0.000
                  1 TE   (  0  0  0)     6.497     3.438    -0.000
                  1 TE   ( -1  0  0)     6.497     3.438    -0.000

 ATOM A   8 TE   ATOM B     CELL      R(AB)/AU R(AB)/ANG    OVPOP(AB)
                 12 W    (  0  1 -1)     5.178     2.740     0.000
                 12 W    (  1  1 -1)     5.178     2.740    -0.000
                  9 W    (  0  0  0)     5.202     2.753    -0.000
                  8 TE   ( -1  0  0)     6.442     3.409    -0.000
                  2 TE   (  1  0 -1)     6.497     3.438    -0.000
                  2 TE   (  0  0 -1)     6.497     3.438    -0.000

 ATOM A   9 W    ATOM B     CELL      R(AB)/AU R(AB)/ANG    OVPOP(AB)
                  5 TE   (  0  0  0)     5.036     2.665     0.000
                  5 TE   (  1  0  0)     5.036     2.665     0.000
                  3 TE   (  0  0 -1)     5.067     2.681     0.000
                  2 TE   (  1  0 -1)     5.190     2.746     0.000
                  2 TE   (  0  0 -1)     5.190     2.747     0.000
                  8 TE   (  0  0  0)     5.202     2.753    -0.000

 ATOM A  10 W    ATOM B     CELL      R(AB)/AU R(AB)/ANG    OVPOP(AB)
                  6 TE   (  0  0  0)     5.036     2.665     0.000
                  6 TE   ( -1  0  0)     5.037     2.665     0.000
                  4 TE   (  0  0  0)     5.067     2.681     0.000
                  1 TE   ( -1  0  0)     5.190     2.747     0.000
                  1 TE   (  0  0  0)     5.190     2.747     0.000
                  7 TE   (  0  0  0)     5.202     2.753     0.000

 ATOM A  11 W    ATOM B     CELL      R(AB)/AU R(AB)/ANG    OVPOP(AB)
                  4 TE   (  1  0  0)     5.021     2.657    -0.000
                  4 TE   (  0  0  0)     5.021     2.657    -0.000
                  6 TE   (  0  0  0)     5.031     2.662     0.000
                  7 TE   (  1  1  0)     5.178     2.740    -0.000
                  7 TE   (  0  1  0)     5.178     2.740    -0.000
                  1 TE   (  0  1  0)     5.196     2.750     0.000

 ATOM A  12 W    ATOM B     CELL      R(AB)/AU R(AB)/ANG    OVPOP(AB)
                  3 TE   ( -1  0  0)     5.021     2.657    -0.000
                  3 TE   (  0  0  0)     5.021     2.657     0.000
                  5 TE   (  0  0  1)     5.031     2.662     0.000
                  8 TE   (  0 -1  1)     5.178     2.740     0.000
                  8 TE   ( -1 -1  1)     5.178     2.740    -0.000
                  2 TE   (  0 -1  0)     5.196     2.750     0.000
 EIGENVECTORS IN FORTRAN UNIT 10

 FINAL OPTIMIZED GEOMETRY - DIMENSIONALITY OF THE SYSTEM      3
 (NON PERIODIC DIRECTION: LATTICE PARAMETER FORMALLY SET TO 500)
 *******************************************************************************
 LATTICE PARAMETERS (ANGSTROMS AND DEGREES) - BOHR = 0.5291772083 ANGSTROM
 PRIMITIVE CELL - CENTRING CODE 1/0 VOLUME=   273.250428 - DENSITY 10.787 g/cm^3
         A              B              C           ALPHA      BETA       GAMMA 
     3.40891725     6.14704352    13.04001543    90.003770  89.999855  90.001038
 *******************************************************************************
 ATOMS IN THE ASYMMETRIC UNIT   12 - ATOMS IN THE UNIT CELL:   12
     ATOM                 X/A                 Y/B                 Z/C    
 *******************************************************************************
      1 T 252 TE   -4.999917601075E-01 -2.215367815973E-01 -1.017696860642E-01
      2 T 252 TE   -1.361672737584E-05  2.215017357669E-01  3.982280704960E-01
      3 T 252 TE   -4.999562075791E-01 -2.864294118650E-01  3.507427701656E-01
      4 T 252 TE   -1.436973800583E-05  2.863770595879E-01 -1.492479883956E-01
      5 T 252 TE    3.297651116568E-05 -1.305603405355E-01 -3.354897144549E-01
      6 T 252 TE    4.999217545625E-01  1.306316609735E-01  1.645284381846E-01
      7 T 252 TE    1.660934448490E-05 -3.677672165624E-01  1.165835918813E-01
      8 T 252 TE    4.999906803739E-01  3.677956854259E-01 -3.834158963666E-01
      9 T 274 W    -4.999915085392E-01 -2.529421681620E-02 -4.845527443847E-01
     10 T 274 W    -1.845023321405E-05  2.529643642932E-02  1.545908102534E-02
     11 T 274 W    -4.999868375544E-01  3.864052305090E-01 -2.401867327339E-04
     12 T 274 W     1.072968682249E-05 -3.864198413160E-01  4.997542646459E-01

 T = ATOM BELONGING TO THE ASYMMETRIC UNIT
 INFORMATION **** fort.34 **** GEOMETRY OUTPUT FILE

 DIRECT LATTICE VECTORS CARTESIAN COMPONENTS (ANGSTROM)
          X                    Y                    Z
   0.340891724906E+01  -0.308817184113E-04   0.429606808622E-05
  -0.557281262716E-04   0.614704351630E+01  -0.202130214635E-03
   0.164563926856E-04  -0.429202607028E-03   0.130400154222E+02


 CARTESIAN COORDINATES - PRIMITIVE CELL
 *******************************************************************************
 *      ATOM          X(ANGSTROM)         Y(ANGSTROM)         Z(ANGSTROM)
 *******************************************************************************
    1   252 TE    1.704497384707E+00 -1.361767998240E+00 -1.327031348438E+00
    2   252 TE   -5.220877602084E-05  1.361409888590E+00  5.192855408551E+00
    3   252 TE    1.704629643402E+00 -1.760860041006E+00  4.573751176429E+00
    4   252 TE   -6.740058819505E-05  1.760436305427E+00 -1.946253955922E+00
    5   252 TE    1.141691303867E-04 -8.024161027334E-01 -4.374764660136E+00
    6   252 TE    1.704187319993E+00  8.029124501339E-01  2.145429114403E+00
    7   252 TE    7.903340416190E-05 -2.260731122573E+00  1.520326173040E+00
    8   252 TE    1.704400048487E+00  2.261005205953E+00 -4.999821396347E+00
    9   274 W     1.704481006824E+00 -1.552921213003E-01 -6.318567998829E+00
   10   274 W    -6.405064054810E-05  1.554916610303E-01  2.015815417295E-01
   11   274 W     1.704481956623E+00  2.375234428689E+00 -3.207994780636E-03
   12   274 W     6.633522062216E-05 -2.375554076297E+00  6.516881425442E+00

 ****    1 SYMMOPS - TRANSLATORS IN FRACTIONAL UNITS
 **** MATRICES AND TRANSLATORS IN THE CRYSTALLOGRAPHIC REFERENCE FRAME
   V INV                    ROTATION MATRICES                   TRANSLATORS
   1   1  1.00  0.00  0.00  0.00  1.00  0.00  0.00  0.00  1.00  0.00  0.00  0.00
 TTTTTTTTTTTTTTTTTTTTTTTTTTTTTT END         TELAPSE    35454.43 TCPU    35304.76
 EEEEEEEEEE TERMINATION  DATE 05 12 2023 TIME 08:43:40.2
NODE    0 CPU TIME =     35304.761
NODE    1 CPU TIME =     35344.263
NODE    2 CPU TIME =     35403.466
NODE    3 CPU TIME =     35421.581
NODE    4 CPU TIME =     35413.086
NODE    5 CPU TIME =     35432.648
NODE    6 CPU TIME =     35428.790
NODE    7 CPU TIME =     35437.057
NODE    8 CPU TIME =     35434.152
NODE    9 CPU TIME =     35439.229
NODE   10 CPU TIME =     35416.653
NODE   11 CPU TIME =     35411.313
NODE   12 CPU TIME =     35400.810
NODE   13 CPU TIME =     35411.213
NODE   14 CPU TIME =     35442.786
NODE   15 CPU TIME =     35439.506
NODE   16 CPU TIME =     35438.461
NODE   17 CPU TIME =     35419.175
NODE   18 CPU TIME =     35427.461
NODE   19 CPU TIME =     35364.270
NODE   20 CPU TIME =     35413.833
NODE   21 CPU TIME =     35428.960
NODE   22 CPU TIME =     35428.977
NODE   23 CPU TIME =     35407.286
NODE   24 CPU TIME =     35424.693
NODE   25 CPU TIME =     35436.742
NODE   26 CPU TIME =     35414.655
NODE   27 CPU TIME =     35436.876
NODE   28 CPU TIME =     35435.977
NODE   29 CPU TIME =     35435.835
NODE   30 CPU TIME =     35427.336
NODE   31 CPU TIME =     35430.952
    TOTAL CPU TIME =   1133352.805
