
         
 *******************************************************************************
 *                                                                             *
 *                               CRYSTAL17                                     *
 *                      public : 1.0.2 - March 1st, 2018                       *
 *                       HTTP://WWW.CRYSTAL.UNITO.IT                           *
 *                                                                             *
 *                              MAIN AUTHORS                                   *
 *                                                                             *
 *  R. DOVESI(1,11), V.R. SAUNDERS(2), C. ROETTI(1,11), R. ORLANDO(1,11),      *
 *  C.M. ZICOVICH-WILSON(1,3), F. PASCALE(4), B. CIVALLERI(1,11),              *
 *  K. DOLL(5), N.M. HARRISON(2,6), I.J. BUSH(7), Ph. D'ARCO(8),               *
 *  M. LLUNELL(9), M. CAUSA'(10), Y. NOEL(8), L. MASCHIO(1,11), A. ERBA(1,11)  *
 *  M. RE'RAT(14), S. CASASSA(1,11)                                            *
 *                                                                             *
 *        CONTRIBUTIONS TO THE CODE HAVE ALSO BEEN GIVEN BY                    *
 *                                                                             *
 *  M. FERRABONE(1,11), M. DE LA PIERRE(1,11), M. FERRERO(1,11),               *
 *  J. BAIMA(1,11), E. ALBANESE(1,11), M.F. PEINTINGER(12), R. BAST(13),       *
 *  B. KIRTMAN(15), V. LACIVITA(1,11), R. DEMICHELIS(1,16)                     *
 *  G. BRANDEBURG(17), S. SALUSTRO(1,11), G. SANSONE(1,11)                     *
 *  M.T. RUGGIERO(18)                                                          *
 *                                                                             *
 * (1) THEORETICAL CHEMISTRY GROUP - UNIVERSITA' DI TORINO - TORINO (ITALY)    *
 * (2) COMPUTATIONAL SCIENCE & ENGINEERING DEPARTMENT - STFC DARESBURY (UK)    *
 * (3) UNIVERSIDAD AUTONOMA DEL ESTADO DE MORELOS - CUERNAVACA (MEXICO)        *
 * (4) UNIVERSITE' DE LORRAINE - NANCY (FRANCE)                                *
 * (5) UNIVERSITAET STUTTGART- STUTTGART (GERMANY)                             *
 * (6) IMPERIAL COLLEGE - LONDON (UK)                                          *
 * (7) OXFORD E-RESEARCH CENTRE - OXFORD (UK)                                  *
 * (8) UPMC - SORBONNE UNIVERSITES - PARIS (FRANCE)                            *
 * (9) UNIVERSIDAD DE BARCELONA - BARCELONA (SPAIN)                            *
 *(10) UNIVERSITA' DI NAPOLI "FEDERICO II" - NAPOLI (ITALY)                    *
 *(11) NIS - NANOSTRUCTURED INTERFACES AND SURFACES - TORINO (ITALY)           *
 *(12) MPI FUER CHEMISCHE ENERGIEKONVERSION - MUELHEIM AN DER RUHR (GERMANY)   *
 *(13) UNIVERSITY OF TROMSO - TROMSO (NORWAY)                                  *
 *(14) UNIVERSITE' DE PAU ET DES PAYS DE L'ADOUR - PAU (FRANCE)                *
 *(15) UNIVERSITY OF CALIFORNIA SANTA BARBARA - SANTA BARBARA (USA)            *
 *(16) CURTIN UNIVERSITY - PERTH (AUSTRALIA)                                   *
 *(17) UNIVERSITY COLLEGE LONDON - LONDON (UK)                                 *
 *(18) CAMBRIDGE UNIVERSITY - CAMBRIDGE (UK)                                   *
 *                                                                             *
 *******************************************************************************
 EEEEEEEEEE STARTING  DATE 03 08 2023 TIME 18:11:50.7
 Te2W                                                                            

 CRYSTAL CALCULATION
 (INPUT ACCORDING TO THE INTERNATIONAL TABLES FOR X-RAY CRYSTALLOGRAPHY)
 CRYSTAL FAMILY                       :  ORTHORHOMBIC
 CRYSTAL CLASS  (GROTH - 1921)        :  ORTHORHOMBIC PYRAMIDAL               

 SPACE GROUP (NONCENTROSYMMETRIC)     :  P M N 21        

 LATTICE PARAMETERS  (ANGSTROMS AND DEGREES) - CONVENTIONAL CELL
        A           B           C        ALPHA        BETA       GAMMA
     3.51860     6.30234    15.00578    90.00000    90.00000    90.00000


 NUMBER OF IRREDUCIBLE ATOMS IN THE CONVENTIONAL CELL:   12

 INPUT COORDINATES

 ATOM AT. N.              COORDINATES
   1 252     5.000000000000E-01  7.958000000000E-01  9.102400000000E-01
   2 252     0.000000000000E+00  2.042000000000E-01  4.102400000000E-01
   3 252     5.000000000000E-01  6.972700000000E-01  3.692500000000E-01
   4 252     0.000000000000E+00  3.027300000000E-01  8.692500000000E-01
   5 252     0.000000000000E+00  8.577400000000E-01  6.458900000000E-01
   6 252     5.000000000000E-01  1.422600000000E-01  1.458900000000E-01
   7 252     0.000000000000E+00  6.479700000000E-01  1.048300000000E-01
   8 252     5.000000000000E-01  3.520300000000E-01  6.048300000000E-01
   9 274     5.000000000000E-01  9.560000000000E-01  5.147300000000E-01
  10 274     0.000000000000E+00  4.400000000000E-02  1.473000000000E-02
  11 274     5.000000000000E-01  3.996200000000E-01  3.500000000000E-04
  12 274     0.000000000000E+00  6.003800000000E-01  5.003500000000E-01

 *******************************************************************************

 << INFORMATION >>: FROM NOW ON, ALL COORDINATES REFER TO THE PRIMITIVE CELL

 *******************************************************************************

 LATTICE PARAMETERS  (ANGSTROMS AND DEGREES) - PRIMITIVE CELL
       A          B          C        ALPHA      BETA     GAMMA        VOLUME
    3.51860    6.30234   15.00578    90.00000  90.00000  90.00000    332.759377

 INPUT LIST - ATOM N.   2 NOT IRREDUCIBLE

 INPUT LIST - ATOM N.   4 NOT IRREDUCIBLE

 INPUT LIST - ATOM N.   6 NOT IRREDUCIBLE

 INPUT LIST - ATOM N.   8 NOT IRREDUCIBLE

 INPUT LIST - ATOM N.  10 NOT IRREDUCIBLE

 INPUT LIST - ATOM N.  12 NOT IRREDUCIBLE

 COORDINATES OF THE EQUIVALENT ATOMS (FRACTIONAL UNITS)

 N. ATOM EQUIV AT. N.          X                  Y                  Z

   1   1   1  252 TE   -5.00000000000E-01 -2.04200000000E-01 -8.97600000000E-02
   2   1   2  252 TE    0.00000000000E+00  2.04200000000E-01  4.10240000000E-01


   3   3   1  252 TE   -5.00000000000E-01 -3.02730000000E-01  3.69250000000E-01
   4   3   2  252 TE    0.00000000000E+00  3.02730000000E-01 -1.30750000000E-01


   5   5   1  252 TE    0.00000000000E+00 -1.42260000000E-01 -3.54110000000E-01
   6   5   2  252 TE   -5.00000000000E-01  1.42260000000E-01  1.45890000000E-01


 NUMBER OF SYMMETRY OPERATORS         :    4
 *******************************************************************************
 * GEOMETRY EDITING - INPUT COORDINATES ARE GIVEN IN ANGSTROM         
 *******************************************************************************

 GEOMETRY NOW FULLY CONSISTENT WITH THE GROUP
 INFORMATION **** NEW DEFAULT **** FINALRUN 4 FOR GEOMETRY OPTIMIZATIONS
 INFORMATION **** NEW DEFAULT **** OPTGEOM OPTIMIZES BOTH ATOMIC COORDINATES AND CELL PARAMETERS
 INFORMATION **** NEW DEFAULT **** TOL. ON ATOMIC DISP TO REDEFINE REF. GEOMETRY: 0.8 Angs
 INFORMATION **** NEW DEFAULT **** N POINTS TO REDEFINE REF. GEOMETRY: N OF OPT DEGS OF FREEDOM
 INFORMATION **** NEW DEFAULT **** TOL. ON ENERGY TO REDEFINE REF. GEOMETRY: 10**-3*(5*N. ATOMS)
 INFORMATION **** FULLOPTG **** FULL OPTIMIZATION (ATOMS AND CELL PARAMETERS)
 INFORMATION **** MAXCYCLE ****   MAXIMUM NUMBER OF OPTIMIZATION CYCLES         800

 IMPORTANT INFORMATION:
 THE COORDINATE SYSTEM ADOPTED IN THE OPTIMIZATION IS NOT IN
 GENERAL HOMOGENEOUS UNITS. FOR THIS REASON THE GRADIENT AND 
 HESSIAN MATRIX IN TERMS OF THIS SYSTEM ARE GIVEN WITHOUT
 UNITS. FOR MORE DETAILS SEE THE MANUAL.

 *******************************************************************************
 COMBINED CELL/ATOM OPTIMIZATION CONTROL

 INITIAL TRUST RADIUS         0.50000 MAXIMUM TRUST RADIUS               4.00000
 MAXIMUM GRADIENT COMPONENT   0.00045 MAXIMUM DISPLACEMENT COMPONENT     0.00180
 R.M.S. OF GRADIENT COMPONENT 0.00030 R.M.S. OF DISPLACEMENT COMPONENTS  0.00120
 THRESHOLD ON ENERGY CHANGE 0.100E-06 EXTRAPOLATING POLYNOMIAL ORDER           2
 MAXIMUM ALLOWED NUMBER OF STEPS  800 SORTING OF ENERGY POINTS:               NO
 ANALYTICAL  GRADIENT                 HESSIAN UPDATING                      BFGS
 STEP SIZE NUMERICAL GRADIENT 0.00100
 INITIAL HESSIAN MATRIX: SCHLEGEL MODEL 2
 *******************************************************************************


 GCALCO - MAX INDICES DIRECT LATTICE VECTOR    29    16     6
 NO.OF VECTORS CREATED 6999 STARS 1083 RMAX   155.27374 BOHR

 GEOMETRY FOR WAVE FUNCTION - DIMENSIONALITY OF THE SYSTEM    3
 (NON PERIODIC DIRECTION: LATTICE PARAMETER FORMALLY SET TO 500)
 *******************************************************************************
 LATTICE PARAMETERS (ANGSTROMS AND DEGREES) - BOHR = 0.5291772083 ANGSTROM
 PRIMITIVE CELL - CENTRING CODE 1/0 VOLUME=   332.759377 - DENSITY  8.858 g/cm^3
         A              B              C           ALPHA      BETA       GAMMA 
     3.51860000     6.30234000    15.00578000    90.000000  90.000000  90.000000
 *******************************************************************************
 ATOMS IN THE ASYMMETRIC UNIT    6 - ATOMS IN THE UNIT CELL:   12
     ATOM                 X/A                 Y/B                 Z/C    
 *******************************************************************************
      1 T 252 TE   -5.000000000000E-01 -2.042000000000E-01 -8.976000000000E-02
      2 F 252 TE    0.000000000000E+00  2.042000000000E-01  4.102400000000E-01
      3 T 252 TE   -5.000000000000E-01 -3.027300000000E-01  3.692500000000E-01
      4 F 252 TE    0.000000000000E+00  3.027300000000E-01 -1.307500000000E-01
      5 T 252 TE    0.000000000000E+00 -1.422600000000E-01 -3.541100000000E-01
      6 F 252 TE   -5.000000000000E-01  1.422600000000E-01  1.458900000000E-01
      7 T 252 TE    0.000000000000E+00 -3.520300000000E-01  1.048300000000E-01
      8 F 252 TE   -5.000000000000E-01  3.520300000000E-01 -3.951700000000E-01
      9 T 274 W    -5.000000000000E-01 -4.400000000000E-02 -4.852700000000E-01
     10 F 274 W     0.000000000000E+00  4.400000000000E-02  1.473000000000E-02
     11 T 274 W    -5.000000000000E-01  3.996200000000E-01  3.500000000000E-04
     12 F 274 W     0.000000000000E+00 -3.996200000000E-01 -4.996500000000E-01

 T = ATOM BELONGING TO THE ASYMMETRIC UNIT

 ****    4 SYMMOPS - TRANSLATORS IN FRACTIONAL UNITS
 **** MATRICES AND TRANSLATORS IN THE CRYSTALLOGRAPHIC REFERENCE FRAME
   V INV                    ROTATION MATRICES                   TRANSLATORS
   1   1  1.00  0.00  0.00  0.00  1.00  0.00  0.00  0.00  1.00  0.00  0.00  0.00
   2   2 -1.00  0.00  0.00  0.00 -1.00  0.00  0.00  0.00  1.00  0.50  0.00  0.50
   3   3 -1.00  0.00  0.00  0.00  1.00  0.00  0.00  0.00  1.00  0.00  0.00  0.00
   4   4  1.00  0.00  0.00  0.00 -1.00  0.00  0.00  0.00  1.00  0.50  0.00  0.50

 DIRECT LATTICE VECTORS CARTESIAN COMPONENTS (ANGSTROM)
          X                    Y                    Z
   0.351860000000E+01   0.000000000000E+00   0.000000000000E+00
   0.000000000000E+00   0.630234000000E+01   0.000000000000E+00
   0.000000000000E+00   0.000000000000E+00   0.150057800000E+02


 CARTESIAN COORDINATES - PRIMITIVE CELL
 *******************************************************************************
 *      ATOM          X(ANGSTROM)         Y(ANGSTROM)         Z(ANGSTROM)
 *******************************************************************************
    1   252 TE    1.759300000000E+00 -1.286937828000E+00 -1.346918812800E+00
    2   252 TE    0.000000000000E+00  1.286937828000E+00  6.155971187200E+00
    3   252 TE    1.759300000000E+00 -1.907907388200E+00  5.540884265000E+00
    4   252 TE    0.000000000000E+00  1.907907388200E+00 -1.962005735000E+00
    5   252 TE    0.000000000000E+00 -8.965708884000E-01 -5.313696755800E+00
    6   252 TE    1.759300000000E+00  8.965708884000E-01  2.189193244200E+00
    7   252 TE    0.000000000000E+00 -2.218612750200E+00  1.573055917400E+00
    8   252 TE    1.759300000000E+00  2.218612750200E+00 -5.929834082600E+00
    9   274 W     1.759300000000E+00 -2.773029600000E-01 -7.281854860600E+00
   10   274 W     0.000000000000E+00  2.773029600000E-01  2.210351394000E-01
   11   274 W     1.759300000000E+00  2.518541110800E+00  5.252023000000E-03
   12   274 W     0.000000000000E+00 -2.518541110800E+00 -7.497637977000E+00

 *******************************************************************************
 *** PSEUDOPOTENTIAL INFORMATION ***
 *******************************************************************************

 ATOMIC NUMBER  52, NUCLEAR CHARGE 24.000, GIVEN IN INPUT       PSEUDOPOTENTIAL
   TYPE       EXPONENT      COEFF.    N      EXPONENT      COEFF.    N
  P0 TMS    16.8144730  281.0458430   0     8.7935260   61.6206560   0
  P1 TMS    14.8778010   67.4494640   0    14.2697310  134.9043040   0
             8.7244350   14.6895470   0     8.2915150   29.4150630   0
  P2 TMS    15.2050080   35.4320570   0    15.2258480   53.1356870   0
             6.0717690    9.0698020   0     5.8047600   13.1223040   0
  P3 TMS    15.2061680  -15.7454500   0    15.2017020  -20.7424480   0

 ATOMIC NUMBER  74, NUCLEAR CHARGE 14.000, GIVEN IN INPUT       PSEUDOPOTENTIAL
   TYPE       EXPONENT      COEFF.    N      EXPONENT      COEFF.    N
  P0 TMS    11.0637950  419.2275990   0     8.2176410   41.1913070   0
  P1 TMS     9.3381880  107.3481100   0     8.4304480  214.6995680   0
             9.4900200    0.0254420   2     9.4899470    0.0518950   2
             1.8829970   -0.1171840   0     1.9069720    0.2966890   0
  P2 TMS     6.2054330   58.8812790   0     6.1221570   98.6835560   0
             6.2745560    0.0195370   2     6.2263750    0.0219560   2
             1.9638750   -0.0885770   0     1.8882870   -0.2097260   0
  P3 TMS     2.3079530    6.2324720   0     2.2706090    8.3113450   0
  P4 TMS     3.5834910   -6.8029440   0     3.5625150   -8.4432320   0

 *******************************************************************************
 LOCAL ATOMIC FUNCTIONS BASIS SET
 *******************************************************************************
   ATOM   X(AU)   Y(AU)   Z(AU)  N. TYPE  EXPONENT  S COEF   P COEF   D/F/G COEF
 *******************************************************************************
   1 TE   3.325  -2.432  -2.545
                                  1 S  
                                         6.213E+03 1.739E-04 0.000E+00 0.000E+00
                                         9.209E+02 1.193E-03 0.000E+00 0.000E+00
                                         1.993E+02 3.626E-03 0.000E+00 0.000E+00
                                         2.477E+01-5.979E-02 0.000E+00 0.000E+00
                                         1.484E+01 9.594E-01 0.000E+00 0.000E+00
                                  2 S  
                                         1.228E+01 7.594E-01 0.000E+00 0.000E+00
                                         6.381E+00 3.533E-01 0.000E+00 0.000E+00
                                  3 S  
                                         2.221E+00 5.993E-01 0.000E+00 0.000E+00
                                         1.078E+00 2.314E-01 0.000E+00 0.000E+00
                                  4 S  
                                         1.852E-01 1.000E+00 0.000E+00 0.000E+00
                           5-     7 P  
                                         2.043E+02 0.000E+00 4.061E-04 0.000E+00
                                         1.821E+01 0.000E+00 6.026E-02 0.000E+00
                                         9.921E+00 0.000E+00-2.749E-01 0.000E+00
                           8-    10 P  
                                         3.144E+00 0.000E+00 4.315E-01 0.000E+00
                                         1.722E+00 0.000E+00 5.540E-01 0.000E+00
                                         8.910E-01 0.000E+00 2.409E-01 0.000E+00
                          11-    13 P  
                                         5.060E-01 0.000E+00 1.000E+00 0.000E+00
                          14-    16 P  
                                         1.514E-01 0.000E+00 1.000E+00 0.000E+00
                          17-    21 D  
                                         1.215E+02 0.000E+00 0.000E+00 6.349E-04
                                         3.297E+01 0.000E+00 0.000E+00 6.181E-03
                                         1.925E+01 0.000E+00 0.000E+00-8.893E-03
                                         4.720E+00 0.000E+00 0.000E+00 2.016E-01
                                         2.343E+00 0.000E+00 0.000E+00 4.298E-01
                                         1.114E+00 0.000E+00 0.000E+00 3.825E-01
                          22-    26 D  
                                         9.122E-01 0.000E+00 0.000E+00 1.000E+00
                          27-    31 D  
                                         4.472E-01 0.000E+00 0.000E+00 1.000E+00
                          32-    36 D  
                                         1.863E-01 0.000E+00 0.000E+00 1.000E+00
   2 TE   0.000   2.432  11.633
   3 TE   3.325  -3.605  10.471
   4 TE   0.000   3.605  -3.708
   5 TE   0.000  -1.694 -10.041
   6 TE   3.325   1.694   4.137
   7 TE   0.000  -4.193   2.973
   8 TE   3.325   4.193 -11.206
   9 W    3.325  -0.524 -13.761
                                289 S  
                                         3.000E+01 3.225E-01 0.000E+00 0.000E+00
                                         2.700E+01-4.669E-01 0.000E+00 0.000E+00
                                         1.308E+01 4.270E-01 0.000E+00 0.000E+00
                                290 S  
                                         4.565E+00 1.000E+00 0.000E+00 0.000E+00
                                291 S  
                                         9.291E-01 1.000E+00 0.000E+00 0.000E+00
                                292 S  
                                         2.594E-01 1.000E+00 0.000E+00 0.000E+00
                         293-   295 P  
                                         1.700E+01 0.000E+00-3.782E-02 0.000E+00
                                         1.243E+01 0.000E+00 1.091E-01 0.000E+00
                                         5.159E+00 0.000E+00-2.940E-01 0.000E+00
                                         1.280E+00 0.000E+00 5.156E-01 0.000E+00
                         296-   298 P  
                                         6.918E-01 0.000E+00 1.000E+00 0.000E+00
                         299-   301 P  
                                         3.587E-01 0.000E+00 1.000E+00 0.000E+00
                         302-   306 D  
                                         7.406E+00 0.000E+00 0.000E+00 8.699E-02
                                         5.903E+00 0.000E+00 0.000E+00-1.767E-01
                                         1.298E+00 0.000E+00 0.000E+00 5.515E-01
                                         5.715E-01 0.000E+00 0.000E+00 9.531E-01
                         307-   311 D  
                                         3.906E-01 0.000E+00 0.000E+00 1.000E+00
                         312-   316 D  
                                         2.284E-01 0.000E+00 0.000E+00 1.000E+00
                         317-   323 F  
                                         4.320E-01 0.000E+00 0.000E+00 1.000E+00
  10 W    0.000   0.524   0.418
  11 W    3.325   4.759   0.010
  12 W    0.000  -4.759 -14.168
 INFORMATION **** SET_MPP **** PCRYSTAL CALCULATION
 INFORMATION **** READM2 **** NEW DEFAULT: FOCK/KS MATRIX MIXING SET TO 30 %
 INFORMATION **** READM2 **** NEW DEFAULT: FULL DIRECT SCF MODE
 INFORMATION **** READM2 **** NEW DEFAULT: COULOMB BIPOLAR BUFFER SET TO 32 Mb
 INFORMATION **** READM2 **** NEW DEFAULT: EXCHANGE BIPOLAR BUFFER SET TO 32 Mb

 *******************************************************************************
 NEW DEFAULT: DFT INTEGRATION GRID INCREASED TO XLGRID
 NEW DEFAULT: DIIS ACCELERATOR ACTIVE
 USE KEYWORD NODIIS TO TURN IT OFF
 *******************************************************************************

 WARNING **** RDDFTP **** HSE06-HJS ACTIVE
 RANGE SEPARATION - OMEGA:   0.110000000000000     
 INFORMATION **** DFTD3_INPUT **** PERFORM LATEST DISPERSION CORRECTION DFT-D3(BJ) WITH AUTOMATIC PARAMETER SETUP
 PLEASE CITE:
 (1) DFT-D3 Reference
  S. Grimme, J. Antony, S. Ehrlich, and H. Krieg, J. Chem. Phys. 132 (2010), 154104
 (2) BJ-Damping Reference
  S. Grimme, S. Ehrlich, and L. Goerigk, J. Comput. Chem. 32 (2011), 1456-1465
 (3) General DFT-D Review
  S. Grimme, A. Hansen, J. G. Brandenburg, and C. Bannwarth,
  Chem. Rev. 116 (2016), 5105-5154

 INFORMATION **** TOLINTEG **** COULOMB AND EXCHANGE SERIES TOLERANCES MODIFIED
 INFORMATION **** TOLDEE **** SCF TOL ON TOTAL ENERGY SET TO           7
 INFORMATION **** READM2 **** FULL DIRECT SCF (MONO AND BIEL INT) SELECTED
 INFORMATION **** BIPOSIZE **** COULOMB BIPOLAR BUFFER SET TO   110000000
 INFORMATION **** EXCHSIZE **** EXCHANGE BIPOLAR BUFFER SIZE SET TO   110000000
 INFORMATION **** MAXCYCLE **** MAX NUMBER OF SCF CYCLES SET TO         800
 INFORMATION **** DIIS **** DIIS FOR SCF ACTIVE
 INFORMATION **** DIIS **** LEVEL SHIFTER DISABLED
 INFORMATION **** PPAN ****  MULLIKEN POPULATION ANALYSIS AT THE END OF SCF
 *******************************************************************************
 N. OF ATOMS PER CELL        12  COULOMB OVERLAP TOL         (T1) 10**   -7
 NUMBER OF SHELLS           140  COULOMB PENETRATION TOL     (T2) 10**   -7
 NUMBER OF AO               428  EXCHANGE OVERLAP TOL        (T3) 10**   -7
 N. OF ELECTRONS PER CELL   248  EXCHANGE PSEUDO OVP (F(G))  (T4) 10**   -9
 CORE ELECTRONS PER CELL      0  EXCHANGE PSEUDO OVP (P(G))  (T5) 10**  -30
 N. OF SYMMETRY OPERATORS     4  POLE ORDER IN MONO ZONE                  4
 *******************************************************************************
 TYPE OF CALCULATION :  UNRESTRICTED OPEN SHELL
 KOHN-SHAM HAMILTONIAN

 (EXCHANGE)[CORRELATION] FUNCTIONAL:(HSE06 SR/GGA)[PERDEW-BURKE-ERNZERHOF]

 RANGE-SEPARATED HYBRID FUNCTIONAL 
 OMEGA (SHORT-RANGE)[LONG-RANGE]:(    0.1100)[    0.0000]

 HYBRID EXCHANGE - PERCENTAGE OF FOCK EXCHANGE    25.0000

 SPIN POLARIZED DFT SELECTED
 CORE  PSEUDO POTENTIAL         TOL. ON PSEUDO              (TP) 10**- 6

 CAPPA:IS1 12;IS2 10;IS3  3; K PTS MONK NET  84; SYMMOPS:K SPACE   8;G SPACE   4

 *******************************************************************************
 MAX NUMBER OF SCF CYCLES     800  CONVERGENCE ON DELTAP        10**-17
 WEIGHT OF F(I) IN F(I+1)      30% CONVERGENCE ON ENERGY        10**- 7
 SHRINK. FACT.(MONKH.)   12 10  3  NUMBER OF K POINTS IN THE IBZ     84
 SHRINKING FACTOR(GILAT NET)   24  NUMBER OF K POINTS(GILAT NET)    572
 *******************************************************************************
 *** K POINTS COORDINATES (OBLIQUE COORDINATES IN UNITS OF IS = 12)
   1-R(  0  0  0)   2-C(  1  0  0)   3-C(  2  0  0)   4-C(  3  0  0)
   5-C(  4  0  0)   6-C(  5  0  0)   7-R(  6  0  0)   8-C(  0  1  0)
   9-C(  1  1  0)  10-C(  2  1  0)  11-C(  3  1  0)  12-C(  4  1  0)
  13-C(  5  1  0)  14-C(  6  1  0)  15-C(  0  2  0)  16-C(  1  2  0)
  17-C(  2  2  0)  18-C(  3  2  0)  19-C(  4  2  0)  20-C(  5  2  0)
  21-C(  6  2  0)  22-C(  0  3  0)  23-C(  1  3  0)  24-C(  2  3  0)
  25-C(  3  3  0)  26-C(  4  3  0)  27-C(  5  3  0)  28-C(  6  3  0)
  29-C(  0  4  0)  30-C(  1  4  0)  31-C(  2  4  0)  32-C(  3  4  0)
  33-C(  4  4  0)  34-C(  5  4  0)  35-C(  6  4  0)  36-R(  0  5  0)
  37-C(  1  5  0)  38-C(  2  5  0)  39-C(  3  5  0)  40-C(  4  5  0)
  41-C(  5  5  0)  42-R(  6  5  0)  43-C(  0  0  1)  44-C(  1  0  1)
  45-C(  2  0  1)  46-C(  3  0  1)  47-C(  4  0  1)  48-C(  5  0  1)
  49-C(  6  0  1)  50-C(  0  1  1)  51-C(  1  1  1)  52-C(  2  1  1)
  53-C(  3  1  1)  54-C(  4  1  1)  55-C(  5  1  1)  56-C(  6  1  1)
  57-C(  0  2  1)  58-C(  1  2  1)  59-C(  2  2  1)  60-C(  3  2  1)
  61-C(  4  2  1)  62-C(  5  2  1)  63-C(  6  2  1)  64-C(  0  3  1)
  65-C(  1  3  1)  66-C(  2  3  1)  67-C(  3  3  1)  68-C(  4  3  1)
  69-C(  5  3  1)  70-C(  6  3  1)  71-C(  0  4  1)  72-C(  1  4  1)
  73-C(  2  4  1)  74-C(  3  4  1)  75-C(  4  4  1)  76-C(  5  4  1)
  77-C(  6  4  1)  78-C(  0  5  1)  79-C(  1  5  1)  80-C(  2  5  1)
  81-C(  3  5  1)  82-C(  4  5  1)  83-C(  5  5  1)  84-C(  6  5  1)

 DIRECT LATTICE VECTORS COMPON. (A.U.)     RECIP. LATTICE VECTORS COMPON. (A.U.) 
        X            Y            Z              X            Y            Z
    6.6491904    0.0000000    0.0000000      0.9449549    0.0000000    0.0000000
    0.0000000   11.9096966    0.0000000      0.0000000    0.5275689    0.0000000
    0.0000000    0.0000000   28.3568146      0.0000000    0.0000000    0.2215759

 DISK SPACE FOR EIGENVECTORS (FTN 10)    30042176 REALS

 SYMMETRY ADAPTION OF THE BLOCH FUNCTIONS ENABLED
 TTTTTTTTTTTTTTTTTTTTTTTTTTTTTT gordsh1     TELAPSE        2.04 TCPU        1.30

 MATRIX SIZE: P(G) 2166112, F(G)  173226, P(G) IRR  311162, F(G) IRR   54273
 MAX G-VECTOR INDEX FOR 1- AND 2-ELECTRON INTEGRALS 191

 TTTTTTTTTTTTTTTTTTTTTTTTTTTTTT INPUT       TELAPSE        2.05 TCPU        1.30

 NEIGHBORS OF THE NON-EQUIVALENT ATOMS

 N = NUMBER OF NEIGHBORS AT DISTANCE R
    ATOM  N     R/ANG      R/AU   NEIGHBORS (ATOM LABELS AND CELL INDICES)
   1 TE   2     2.8285     5.3451   10 W    0 0 0   10 W    1 0 0
   1 TE   1     2.8395     5.3659   11 W    0-1 0
   1 TE   2     3.5186     6.6492    1 TE  -1 0 0    1 TE   1 0 0
   1 TE   2     3.5340     6.6784    7 TE   0 0 0    7 TE   1 0 0
   1 TE   2     3.6235     6.8475    4 TE   0-1 0    4 TE   1-1 0
   1 TE   2     3.6987     6.9896    4 TE   0 0 0    4 TE   1 0 0

   3 TE   2     2.7089     5.1191   12 W    0 0 1   12 W    1 0 1
   3 TE   1     2.7248     5.1491    9 W    0 0 1
   3 TE   2     3.5186     6.6492    3 TE  -1 0 0    3 TE   1 0 0
   3 TE   2     3.6235     6.8475    2 TE   0-1 0    2 TE   1-1 0
   3 TE   2     3.6987     6.9896    2 TE   0 0 0    2 TE   1 0 0
   3 TE   1     4.1510     7.8443    8 TE   0-1 1

   5 TE   2     2.7115     5.1240    9 W    0 0 0    9 W   -1 0 0
   5 TE   1     2.7204     5.1407   12 W    0 0 0
   5 TE   2     3.5186     6.6492    5 TE  -1 0 0    5 TE   1 0 0
   5 TE   2     3.6303     6.8603    8 TE   0 0 0    8 TE  -1 0 0
   5 TE   2     3.6923     6.9773    8 TE   0-1 0    8 TE  -1-1 0
   5 TE   1     4.1559     7.8536    2 TE   0 0-1

   7 TE   2     2.8289     5.3459   11 W    0-1 0   11 W   -1-1 0
   7 TE   1     2.8386     5.3641   10 W    0 0 0
   7 TE   2     3.5186     6.6492    7 TE  -1 0 0    7 TE   1 0 0
   7 TE   2     3.5340     6.6784    1 TE   0 0 0    1 TE  -1 0 0
   7 TE   2     3.6303     6.8603    6 TE   0 0 0    6 TE  -1 0 0
   7 TE   2     3.6923     6.9773    6 TE   0-1 0    6 TE  -1-1 0

   9 W    2     2.7115     5.1240    5 TE   0 0 0    5 TE   1 0 0
   9 W    1     2.7248     5.1491    3 TE   0 0-1
   9 W    2     2.8285     5.3451    2 TE   0 0-1    2 TE   1 0-1
   9 W    1     2.8386     5.3641    8 TE   0 0 0
   9 W    2     2.8574     5.3997   12 W    0 0 0   12 W    1 0 0
   9 W    2     3.5186     6.6492    9 W   -1 0 0    9 W    1 0 0

  11 W    2     2.7089     5.1191    4 TE   0 0 0    4 TE   1 0 0
  11 W    1     2.7204     5.1407    6 TE   0 0 0
  11 W    2     2.8289     5.3459    7 TE   0 1 0    7 TE   1 1 0
  11 W    1     2.8395     5.3659    1 TE   0 1 0
  11 W    2     2.8574     5.3997   10 W    0 0 0   10 W    1 0 0
  11 W    2     3.5186     6.6492   11 W   -1 0 0   11 W    1 0 0


 SYMMETRY ALLOWED ELASTIC DISTORTION 1
  0.5773503  0.0000000  0.0000000
  0.0000000  0.5773503  0.0000000
  0.0000000  0.0000000  0.5773503

 SYMMETRY ALLOWED ELASTIC DISTORTION 2
  0.8164966  0.0000000  0.0000000
  0.0000000 -0.4082483  0.0000000
  0.0000000  0.0000000 -0.4082483

 SYMMETRY ALLOWED ELASTIC DISTORTION 3
  0.0000000  0.0000000  0.0000000
  0.0000000  0.7071068  0.0000000
  0.0000000  0.0000000 -0.7071068

 SYMMETRY ALLOWED INTERNAL DEGREE(S) OF FREEDOM:  11
 TTTTTTTTTTTTTTTTTTTTTTTTTTTTTT SYMM        TELAPSE        2.11 TCPU        1.34
 TTTTTTTTTTTTTTTTTTTTTTTTTTTTTT INT_SCREEN  TELAPSE        2.11 TCPU        1.35

 *******************************************************************************
 *                             OPTIMIZATION STARTS                             *
 *******************************************************************************
 RECLASIFICATION OF INDICES FOR INTEGRAL CALC ACCORDING TO DIFFERENT CRITERIA:
           FIXDELTE                  FIXDELTX              FIXDELTN
          0.10000000               0.80000000                 14
 *******************************************************************************

 *******************************************************************************
 COORDINATE AND CELL OPTIMIZATION - POINT    1

 DFT PARAMETERS

     ATOM       ELECTRONS   NET CHARGE   R(ANGSTROM)
   1 252  TE     24.0000      0.0000     1.37000000
   9 274  W      14.0000      0.0000     1.41000000

 SIZE OF GRID=      76412
 TTTTTTTTTTTTTTTTTTTTTTTTTTTTTT MAKE_GRID2  TELAPSE        2.84 TCPU        2.08
 BECKE WEIGHT FUNCTION
 RADSAFE =     2.00
 TOLERANCES - DENSITY:10**- 6; POTENTIAL:10**- 9; GRID WGT:10**-14

 RADIAL INTEGRATION  - INTERVALS (POINTS,UPPER LIMIT):            1( 75,  4.0*R)

 ANGULAR INTEGRATION - INTERVALS (ACCURACY LEVEL [N. POINTS] UPPER LIMIT):
  1(  4[  86]   0.2)  2(  8[ 194]   0.5)  3( 12[ 350]   0.9)  4( 16[ 974]   3.5)
  5( 12[ 350]9999.0)
 TTTTTTTTTTTTTTTTTTTTTTTTTTTTTT INT_CALC    TELAPSE        2.87 TCPU        2.10

 *******************************************************************************
 Te2W                                                                            
 CRYSTAL - SCF - TYPE OF CALCULATION :  UNRESTRICTED OPEN SHELL
 *******************************************************************************

 CAPPA:IS1 12;IS2 10;IS3  3; K PTS MONK NET  84; SYMMOPS:K SPACE   8;G SPACE   4

 TTTTTTTTTTTTTTTTTTTTTTTTTTTTTT SDIK        TELAPSE        2.96 TCPU        2.18

 AAAAAAAAAAAAAAAAAAAAAAAAAAAAAAAAAAAAAAAAAAAAAAAAAAAAAAAAAAAAAAAAAAAAAAAAAAAAAAA
         ATOMIC WAVEFUNCTION(S)


 NUCLEAR CHARGE 24.0  SYMMETRY SPECIES            S    P    D
 N. ELECTRONS   24.0  NUMBER OF PRIMITIVE GTOS   10    8    9
                      NUMBER OF CONTRACTED GTOS   4    4    4
                      NUMBER OF CLOSED SHELLS     2    1    1
                      OPEN SHELL OCCUPATION       0    4    0

  ZNUC SCFIT  TOTAL HF ENERGY   KINETIC ENERGY   VIRIAL THEOREM ACCURACY
  24.0  12   -2.669346844E+02  1.030853931E+02 -3.589452070E+00  2.9E-06

 NUCLEAR CHARGE 14.0  SYMMETRY SPECIES            S    P    D
 N. ELECTRONS   14.0  NUMBER OF PRIMITIVE GTOS    6    6    6
                      NUMBER OF CONTRACTED GTOS   4    3    3
                      NUMBER OF CLOSED SHELLS     2    1    0
                      OPEN SHELL OCCUPATION       0    0    4

  ZNUC SCFIT  TOTAL HF ENERGY   KINETIC ENERGY   VIRIAL THEOREM ACCURACY
  14.0  41   -6.589661786E+01  2.471738258E+01 -3.666003070E+00  4.6E-06

 AAAAAAAAAAAAAAAAAAAAAAAAAAAAAAAAAAAAAAAAAAAAAAAAAAAAAAAAAAAAAAAAAAAAAAAAAAAAAAA

 CHARGE NORMALIZATION FACTOR   1.00000000
 TOTAL ATOMIC CHARGES:
  24.0000000  24.0000000  24.0000000  24.0000000  24.0000000  24.0000000
  24.0000000  24.0000000  14.0000000  14.0000000  14.0000000  14.0000000
 SUMMED SPIN DENSITY           0.00000000
 TOTAL ATOMIC SPINS  :
   0.0000000   0.0000000   0.0000000   0.0000000   0.0000000   0.0000000
   0.0000000   0.0000000   0.0000000   0.0000000   0.0000000   0.0000000
 TTTTTTTTTTTTTTTTTTTTTTTTTTTTTT MOQGAD      TELAPSE        3.38 TCPU        2.60
 TTTTTTTTTTTTTTTTTTTTTTTTTTTTTT SHELLXN     TELAPSE       26.13 TCPU       25.18
 TTTTTTTTTTTTTTTTTTTTTTTTTTTTTT MONMO3      TELAPSE       35.40 TCPU       34.44
 NUMERICALLY INTEGRATED DENSITY    123.9999829720    123.9999829720
 TTTTTTTTTTTTTTTTTTTTTTTTTTTTTT NUMDFT      TELAPSE       35.65 TCPU       34.69
 CYC   0 ETOT(AU) -2.411390629654E+03 DETOT -2.41E+03 tst  0.00E+00 PX  1.00E+00
 TTTTTTTTTTTTTTTTTTTTTTTTTTTTTT DIIS        TELAPSE       35.71 TCPU       34.75
 TTTTTTTTTTTTTTTTTTTTTTTTTTTTTT FDIK        TELAPSE       39.64 TCPU       38.61
 POSSIBLY CONDUCTING STATE - EFERMI(AU) -3.9750230E-02 (RES. CHARGE  5.63E-12;IT.  8)
 TTTTTTTTTTTTTTTTTTTTTTTTTTTTTT PDIG        TELAPSE       40.04 TCPU       39.01
 CHARGE NORMALIZATION FACTOR   1.00000000
 TOTAL ATOMIC CHARGES:
  25.6119745  25.6119745  25.5650485  25.5650485  25.5682115  25.5682115
  25.6122144  25.6122144  10.8189928  10.8189928  10.8235583  10.8235583
 SUMMED SPIN DENSITY          -0.00000000
 TOTAL ATOMIC SPINS  :
  -0.0000000  -0.0000000  -0.0000000  -0.0000000  -0.0000000  -0.0000000
  -0.0000000  -0.0000000   0.0000000   0.0000000  -0.0000000  -0.0000000
 TTTTTTTTTTTTTTTTTTTTTTTTTTTTTT MOQGAD      TELAPSE       40.05 TCPU       39.02
 TTTTTTTTTTTTTTTTTTTTTTTTTTTTTT SHELLXN     TELAPSE       63.30 TCPU       62.23
 TTTTTTTTTTTTTTTTTTTTTTTTTTTTTT MONMO3      TELAPSE       72.71 TCPU       71.63
 NUMERICALLY INTEGRATED DENSITY    123.9999817374    123.9999817374
 TTTTTTTTTTTTTTTTTTTTTTTTTTTTTT NUMDFT      TELAPSE       73.25 TCPU       72.17
 CYC   1 ETOT(AU) -2.410771670265E+03 DETOT  6.19E-01 tst  0.00E+00 PX  1.00E+00
 TTTTTTTTTTTTTTTTTTTTTTTTTTTTTT DIIS        TELAPSE       73.31 TCPU       72.23
 DIIS TEST: 0.32443E+02 AT SCF   CYCLE   1 - MIX   30 %
 TTTTTTTTTTTTTTTTTTTTTTTTTTTTTT FDIK        TELAPSE       74.62 TCPU       73.54
 POSSIBLY CONDUCTING STATE - EFERMI(AU) -2.6588393E-01 (RES. CHARGE  1.42E-13;IT.  8)
 TTTTTTTTTTTTTTTTTTTTTTTTTTTTTT PDIG        TELAPSE       75.03 TCPU       73.95
 CHARGE NORMALIZATION FACTOR   1.00000000
 TOTAL ATOMIC CHARGES:
  21.6054654  21.6054654  21.6734146  21.6734146  21.6712678  21.6712678
  21.6026865  21.6026865  18.7248255  18.7248255  18.7223402  18.7223402
 SUMMED SPIN DENSITY           0.00000000
 TOTAL ATOMIC SPINS  :
   0.0000000   0.0000000   0.0000000   0.0000000  -0.0000000  -0.0000000
  -0.0000000  -0.0000000   0.0000000   0.0000000   0.0000000   0.0000000
 TTTTTTTTTTTTTTTTTTTTTTTTTTTTTT MOQGAD      TELAPSE       75.04 TCPU       73.95
 TTTTTTTTTTTTTTTTTTTTTTTTTTTTTT SHELLXN     TELAPSE       98.21 TCPU       97.09
 TTTTTTTTTTTTTTTTTTTTTTTTTTTTTT MONMO3      TELAPSE      107.54 TCPU      106.40
 NUMERICALLY INTEGRATED DENSITY    123.9999908308    123.9999908305
 TTTTTTTTTTTTTTTTTTTTTTTTTTTTTT NUMDFT      TELAPSE      108.06 TCPU      106.92
 CYC   2 ETOT(AU) -2.377907389265E+03 DETOT  3.29E+01 tst  4.08E+00 PX  1.40E+00
 TTTTTTTTTTTTTTTTTTTTTTTTTTTTTT DIIS        TELAPSE      108.11 TCPU      106.98
 DIIS TEST: 0.17626E+03 AT SCF   CYCLE   2 - DIIS ACTIVE - HISTORY:     2 CYCLES
 TTTTTTTTTTTTTTTTTTTTTTTTTTTTTT FDIK        TELAPSE      109.32 TCPU      108.17
 POSSIBLY CONDUCTING STATE - EFERMI(AU) -1.0810472E-01 (RES. CHARGE  2.41E-10;IT. 12)
 TTTTTTTTTTTTTTTTTTTTTTTTTTTTTT PDIG        TELAPSE      109.72 TCPU      108.58
 CHARGE NORMALIZATION FACTOR   1.00000000
 TOTAL ATOMIC CHARGES:
  25.0875176  25.0875176  25.0797754  25.0797754  25.0737224  25.0737224
  25.0920443  25.0920443  11.8330498  11.8330498  11.8338905  11.8338905
 SUMMED SPIN DENSITY           0.00000008
 TOTAL ATOMIC SPINS  :
   0.0000008   0.0000008  -0.0000003  -0.0000003  -0.0000003  -0.0000003
  -0.0000003  -0.0000003   0.0000003   0.0000003  -0.0000002  -0.0000002
 TTTTTTTTTTTTTTTTTTTTTTTTTTTTTT MOQGAD      TELAPSE      109.73 TCPU      108.59
 TTTTTTTTTTTTTTTTTTTTTTTTTTTTTT SHELLXN     TELAPSE      132.69 TCPU      131.52
 TTTTTTTTTTTTTTTTTTTTTTTTTTTTTT MONMO3      TELAPSE      142.09 TCPU      140.90
 NUMERICALLY INTEGRATED DENSITY    123.9999832315    123.9999831522
 TTTTTTTTTTTTTTTTTTTTTTTTTTTTTT NUMDFT      TELAPSE      142.61 TCPU      141.42
 CYC   3 ETOT(AU) -2.413451311453E+03 DETOT -3.55E+01 tst  2.49E+00 PX  1.38E+00
 TTTTTTTTTTTTTTTTTTTTTTTTTTTTTT DIIS        TELAPSE      142.67 TCPU      141.48
 DIIS TEST: 0.10652E+02 AT SCF   CYCLE   3 - DIIS ACTIVE - HISTORY:     3 CYCLES
 TTTTTTTTTTTTTTTTTTTTTTTTTTTTTT FDIK        TELAPSE      143.95 TCPU      142.75
 POSSIBLY CONDUCTING STATE - EFERMI(AU) -1.2246930E-01 (RES. CHARGE  0.00E+00;IT. 12)
 TTTTTTTTTTTTTTTTTTTTTTTTTTTTTT PDIG        TELAPSE      144.35 TCPU      143.15
 CHARGE NORMALIZATION FACTOR   1.00000000
 TOTAL ATOMIC CHARGES:
  24.9936171  24.9936171  25.1310930  25.1310930  25.1558440  25.1558440
  24.9799055  24.9799055  11.8495606  11.8495606  11.8899799  11.8899799
 SUMMED SPIN DENSITY           0.00000025
 TOTAL ATOMIC SPINS  :
   0.0000001   0.0000001  -0.0000002  -0.0000002  -0.0000000  -0.0000000
  -0.0000001  -0.0000001   0.0000002   0.0000002   0.0000000   0.0000000
 TTTTTTTTTTTTTTTTTTTTTTTTTTTTTT MOQGAD      TELAPSE      144.36 TCPU      143.16
 TTTTTTTTTTTTTTTTTTTTTTTTTTTTTT SHELLXN     TELAPSE      167.21 TCPU      166.00
 TTTTTTTTTTTTTTTTTTTTTTTTTTTTTT MONMO3      TELAPSE      176.61 TCPU      175.40
 NUMERICALLY INTEGRATED DENSITY    123.9999819914    123.9999817437
 TTTTTTTTTTTTTTTTTTTTTTTTTTTTTT NUMDFT      TELAPSE      177.13 TCPU      175.91
 CYC   4 ETOT(AU) -2.413487376666E+03 DETOT -3.61E-02 tst  2.05E-03 PX  7.40E-02
 TTTTTTTTTTTTTTTTTTTTTTTTTTTTTT DIIS        TELAPSE      177.19 TCPU      175.97
 DIIS TEST: 0.88609E+01 AT SCF   CYCLE   4 - DIIS ACTIVE - HISTORY:     4 CYCLES
 TTTTTTTTTTTTTTTTTTTTTTTTTTTTTT FDIK        TELAPSE      178.42 TCPU      177.20
 POSSIBLY CONDUCTING STATE - EFERMI(AU) -1.4312852E-01 (RES. CHARGE  4.83E-13;IT. 10)
 TTTTTTTTTTTTTTTTTTTTTTTTTTTTTT PDIG        TELAPSE      178.82 TCPU      177.59
 CHARGE NORMALIZATION FACTOR   1.00000000
 TOTAL ATOMIC CHARGES:
  24.9631785  24.9631785  24.7680078  24.7680078  24.7494434  24.7494434
  24.9766626  24.9766626  12.3171596  12.3171596  12.2255482  12.2255482
 SUMMED SPIN DENSITY           0.00000010
 TOTAL ATOMIC SPINS  :
  -0.0000004  -0.0000004   0.0000007   0.0000007  -0.0000013  -0.0000013
  -0.0000007  -0.0000007   0.0000029   0.0000029  -0.0000012  -0.0000012
 TTTTTTTTTTTTTTTTTTTTTTTTTTTTTT MOQGAD      TELAPSE      178.82 TCPU      177.60
 TTTTTTTTTTTTTTTTTTTTTTTTTTTTTT SHELLXN     TELAPSE      201.76 TCPU      200.48
 TTTTTTTTTTTTTTTTTTTTTTTTTTTTTT MONMO3      TELAPSE      211.21 TCPU      209.92
 NUMERICALLY INTEGRATED DENSITY    123.9999839503    123.9999838492
 TTTTTTTTTTTTTTTTTTTTTTTTTTTTTT NUMDFT      TELAPSE      211.72 TCPU      210.43
 CYC   5 ETOT(AU) -2.414191943363E+03 DETOT -7.05E-01 tst  5.97E-03 PX  1.50E-01
 TTTTTTTTTTTTTTTTTTTTTTTTTTTTTT DIIS        TELAPSE      211.78 TCPU      210.49
 DIIS TEST: 0.33939E+01 AT SCF   CYCLE   5 - DIIS ACTIVE - HISTORY:     5 CYCLES
 TTTTTTTTTTTTTTTTTTTTTTTTTTTTTT FDIK        TELAPSE      212.87 TCPU      211.58
 POSSIBLY CONDUCTING STATE - EFERMI(AU) -1.4135373E-01 (RES. CHARGE  1.53E-12;IT. 10)
 TTTTTTTTTTTTTTTTTTTTTTTTTTTTTT PDIG        TELAPSE      213.27 TCPU      211.98
 CHARGE NORMALIZATION FACTOR   1.00000000
 TOTAL ATOMIC CHARGES:
  24.7144625  24.7144625  24.9066085  24.9066085  24.9250193  24.9250193
  24.6982664  24.6982664  12.1676994  12.1676994  12.5879440  12.5879440
 SUMMED SPIN DENSITY          -0.00000006
 TOTAL ATOMIC SPINS  :
   0.0000011   0.0000011   0.0000017   0.0000017   0.0000002   0.0000002
  -0.0000002  -0.0000002  -0.0000005  -0.0000005  -0.0000022  -0.0000022
 TTTTTTTTTTTTTTTTTTTTTTTTTTTTTT MOQGAD      TELAPSE      213.28 TCPU      211.98
 TTTTTTTTTTTTTTTTTTTTTTTTTTTTTT SHELLXN     TELAPSE      236.15 TCPU      234.84
 TTTTTTTTTTTTTTTTTTTTTTTTTTTTTT MONMO3      TELAPSE      245.57 TCPU      244.26
 NUMERICALLY INTEGRATED DENSITY    123.9999834832    123.9999835445
 TTTTTTTTTTTTTTTTTTTTTTTTTTTTTT NUMDFT      TELAPSE      246.09 TCPU      244.78
 CYC   6 ETOT(AU) -2.414231813132E+03 DETOT -3.99E-02 tst  2.91E-03 PX  1.13E-01
 TTTTTTTTTTTTTTTTTTTTTTTTTTTTTT DIIS        TELAPSE      246.15 TCPU      244.84
 DIIS TEST: 0.29983E+01 AT SCF   CYCLE   6 - DIIS ACTIVE - HISTORY:     6 CYCLES
 TTTTTTTTTTTTTTTTTTTTTTTTTTTTTT FDIK        TELAPSE      247.20 TCPU      245.88
 POSSIBLY CONDUCTING STATE - EFERMI(AU) -1.4585640E-01 (RES. CHARGE  2.91E-11;IT.  8)
 TTTTTTTTTTTTTTTTTTTTTTTTTTTTTT PDIG        TELAPSE      247.60 TCPU      246.28
 CHARGE NORMALIZATION FACTOR   1.00000000
 TOTAL ATOMIC CHARGES:
  24.7535323  24.7535323  24.8365646  24.8365646  24.8326418  24.8326418
  24.7617040  24.7617040  12.5908565  12.5908565  12.2247009  12.2247009
 SUMMED SPIN DENSITY           0.00000002
 TOTAL ATOMIC SPINS  :
  -0.0000006  -0.0000006  -0.0000067  -0.0000067   0.0000082   0.0000082
  -0.0000087  -0.0000087   0.0000039   0.0000039   0.0000040   0.0000040
 TTTTTTTTTTTTTTTTTTTTTTTTTTTTTT MOQGAD      TELAPSE      247.60 TCPU      246.29
 TTTTTTTTTTTTTTTTTTTTTTTTTTTTTT SHELLXN     TELAPSE      270.51 TCPU      269.16
 TTTTTTTTTTTTTTTTTTTTTTTTTTTTTT MONMO3      TELAPSE      279.95 TCPU      278.60
 NUMERICALLY INTEGRATED DENSITY    123.9999834704    123.9999834505
 TTTTTTTTTTTTTTTTTTTTTTTTTTTTTT NUMDFT      TELAPSE      280.46 TCPU      279.11
 CYC   7 ETOT(AU) -2.414296766825E+03 DETOT -6.50E-02 tst  2.34E-03 PX  4.62E-02
 TTTTTTTTTTTTTTTTTTTTTTTTTTTTTT DIIS        TELAPSE      280.52 TCPU      279.17
 DIIS TEST: 0.24024E+01 AT SCF   CYCLE   7 - DIIS ACTIVE - HISTORY:     7 CYCLES
 TTTTTTTTTTTTTTTTTTTTTTTTTTTTTT FDIK        TELAPSE      281.63 TCPU      280.27
 POSSIBLY CONDUCTING STATE - EFERMI(AU) -1.5242840E-01 (RES. CHARGE  3.13E-13;IT.  8)
 TTTTTTTTTTTTTTTTTTTTTTTTTTTTTT PDIG        TELAPSE      282.02 TCPU      280.67
 CHARGE NORMALIZATION FACTOR   1.00000000
 TOTAL ATOMIC CHARGES:
  24.8258652  24.8258652  24.7089561  24.7089561  24.7091775  24.7091775
  24.8209037  24.8209037  12.3543254  12.3543254  12.5807721  12.5807721
 SUMMED SPIN DENSITY          -0.00000021
 TOTAL ATOMIC SPINS  :
   0.0000008   0.0000008  -0.0000016  -0.0000016   0.0000031   0.0000031
  -0.0000038  -0.0000038   0.0000065   0.0000065  -0.0000051  -0.0000051
 TTTTTTTTTTTTTTTTTTTTTTTTTTTTTT MOQGAD      TELAPSE      282.03 TCPU      280.67
 TTTTTTTTTTTTTTTTTTTTTTTTTTTTTT SHELLXN     TELAPSE      304.91 TCPU      303.51
 TTTTTTTTTTTTTTTTTTTTTTTTTTTTTT MONMO3      TELAPSE      314.30 TCPU      312.89
 NUMERICALLY INTEGRATED DENSITY    123.9999838318    123.9999840371
 TTTTTTTTTTTTTTTTTTTTTTTTTTTTTT NUMDFT      TELAPSE      314.81 TCPU      313.41
 CYC   8 ETOT(AU) -2.414374834753E+03 DETOT -7.81E-02 tst  1.75E-03 PX  5.12E-02
 TTTTTTTTTTTTTTTTTTTTTTTTTTTTTT DIIS        TELAPSE      314.87 TCPU      313.46
 DIIS TEST: 0.15956E+01 AT SCF   CYCLE   8 - DIIS ACTIVE - HISTORY:     8 CYCLES
 TTTTTTTTTTTTTTTTTTTTTTTTTTTTTT FDIK        TELAPSE      316.00 TCPU      314.60
 POSSIBLY CONDUCTING STATE - EFERMI(AU) -1.6044064E-01 (RES. CHARGE  1.01E-11;IT. 10)
 TTTTTTTTTTTTTTTTTTTTTTTTTTTTTT PDIG        TELAPSE      316.40 TCPU      314.99
 CHARGE NORMALIZATION FACTOR   1.00000000
 TOTAL ATOMIC CHARGES:
  24.5755639  24.5755639  24.6420818  24.6420818  24.6263801  24.6263801
  24.6004004  24.6004004  12.7806876  12.7806876  12.7748863  12.7748863
 SUMMED SPIN DENSITY          -0.00000107
 TOTAL ATOMIC SPINS  :
   0.0000014   0.0000014  -0.0000145  -0.0000145  -0.0000110  -0.0000110
  -0.0000004  -0.0000004   0.0000006   0.0000006   0.0000234   0.0000234
 TTTTTTTTTTTTTTTTTTTTTTTTTTTTTT MOQGAD      TELAPSE      316.41 TCPU      315.00
 TTTTTTTTTTTTTTTTTTTTTTTTTTTTTT SHELLXN     TELAPSE      339.28 TCPU      337.86
 TTTTTTTTTTTTTTTTTTTTTTTTTTTTTT MONMO3      TELAPSE      348.71 TCPU      347.28
 NUMERICALLY INTEGRATED DENSITY    123.9999840460    123.9999851147
 TTTTTTTTTTTTTTTTTTTTTTTTTTTTTT NUMDFT      TELAPSE      349.22 TCPU      347.79
 CYC   9 ETOT(AU) -2.414520940789E+03 DETOT -1.46E-01 tst  1.09E-03 PX  8.83E-02
 TTTTTTTTTTTTTTTTTTTTTTTTTTTTTT DIIS        TELAPSE      349.28 TCPU      347.85
 DIIS TEST: 0.17210E+00 AT SCF   CYCLE   9 - DIIS ACTIVE - HISTORY:     9 CYCLES
 TTTTTTTTTTTTTTTTTTTTTTTTTTTTTT FDIK        TELAPSE      350.51 TCPU      349.08
 POSSIBLY CONDUCTING STATE - EFERMI(AU) -1.6258449E-01 (RES. CHARGE  2.81E-10;IT. 10)
 TTTTTTTTTTTTTTTTTTTTTTTTTTTTTT PDIG        TELAPSE      350.90 TCPU      349.47
 CHARGE NORMALIZATION FACTOR   1.00000000
 TOTAL ATOMIC CHARGES:
  24.5761271  24.5761271  24.5862461  24.5862461  24.5938279  24.5938279
  24.5545085  24.5545085  12.8397669  12.8397669  12.8495234  12.8495234
 SUMMED SPIN DENSITY           0.00000087
 TOTAL ATOMIC SPINS  :
   0.0000028   0.0000028  -0.0000052  -0.0000052   0.0000002   0.0000002
  -0.0000033  -0.0000033  -0.0000055  -0.0000055   0.0000113   0.0000113
 TTTTTTTTTTTTTTTTTTTTTTTTTTTTTT MOQGAD      TELAPSE      350.91 TCPU      349.47
 TTTTTTTTTTTTTTTTTTTTTTTTTTTTTT SHELLXN     TELAPSE      373.77 TCPU      372.33
 TTTTTTTTTTTTTTTTTTTTTTTTTTTTTT MONMO3      TELAPSE      383.22 TCPU      381.77
 NUMERICALLY INTEGRATED DENSITY    123.9999848076    123.9999839336
 TTTTTTTTTTTTTTTTTTTTTTTTTTTTTT NUMDFT      TELAPSE      383.73 TCPU      382.28
 CYC  10 ETOT(AU) -2.414536584830E+03 DETOT -1.56E-02 tst  9.33E-05 PX  1.83E-02
 TTTTTTTTTTTTTTTTTTTTTTTTTTTTTT DIIS        TELAPSE      383.79 TCPU      382.34
 DIIS TEST: 0.25958E-01 AT SCF   CYCLE  10 - DIIS ACTIVE - HISTORY:    10 CYCLES
 TTTTTTTTTTTTTTTTTTTTTTTTTTTTTT FDIK        TELAPSE      384.91 TCPU      383.46
 POSSIBLY CONDUCTING STATE - EFERMI(AU) -1.6492183E-01 (RES. CHARGE  5.34E-12;IT. 10)
 TTTTTTTTTTTTTTTTTTTTTTTTTTTTTT PDIG        TELAPSE      385.31 TCPU      383.86
 CHARGE NORMALIZATION FACTOR   1.00000000
 TOTAL ATOMIC CHARGES:
  24.5390840  24.5390840  24.5556550  24.5556550  24.5560307  24.5560307
  24.5761177  24.5761177  12.8885393  12.8885393  12.8845733  12.8845733
 SUMMED SPIN DENSITY           0.00000098
 TOTAL ATOMIC SPINS  :
   0.0000040   0.0000040  -0.0000027  -0.0000027   0.0000008   0.0000008
  -0.0000006  -0.0000006  -0.0000104  -0.0000104   0.0000094   0.0000094
 TTTTTTTTTTTTTTTTTTTTTTTTTTTTTT MOQGAD      TELAPSE      385.31 TCPU      383.86
 TTTTTTTTTTTTTTTTTTTTTTTTTTTTTT SHELLXN     TELAPSE      408.18 TCPU      406.71
 TTTTTTTTTTTTTTTTTTTTTTTTTTTTTT MONMO3      TELAPSE      417.59 TCPU      416.10
 NUMERICALLY INTEGRATED DENSITY    123.9999849873    123.9999840103
 TTTTTTTTTTTTTTTTTTTTTTTTTTTTTT NUMDFT      TELAPSE      418.10 TCPU      416.62
 CYC  11 ETOT(AU) -2.414539349832E+03 DETOT -2.77E-03 tst  4.37E-05 PX  1.50E-02
 TTTTTTTTTTTTTTTTTTTTTTTTTTTTTT DIIS        TELAPSE      418.16 TCPU      416.68
 DIIS TEST: 0.18297E-02 AT SCF   CYCLE  11 - DIIS ACTIVE - HISTORY:    11 CYCLES
 TTTTTTTTTTTTTTTTTTTTTTTTTTTTTT FDIK        TELAPSE      419.21 TCPU      417.72
 POSSIBLY CONDUCTING STATE - EFERMI(AU) -1.6484690E-01 (RES. CHARGE  1.68E-12;IT.  8)
 TTTTTTTTTTTTTTTTTTTTTTTTTTTTTT PDIG        TELAPSE      419.60 TCPU      418.11
 CHARGE NORMALIZATION FACTOR   1.00000000
 TOTAL ATOMIC CHARGES:
  24.5646736  24.5646736  24.5620400  24.5620400  24.5494622  24.5494622
  24.5454787  24.5454787  12.8865891  12.8865891  12.8917564  12.8917564
 SUMMED SPIN DENSITY           0.00000087
 TOTAL ATOMIC SPINS  :
   0.0000032   0.0000032  -0.0000018  -0.0000018  -0.0000001  -0.0000001
  -0.0000004  -0.0000004  -0.0000071  -0.0000071   0.0000067   0.0000067
 TTTTTTTTTTTTTTTTTTTTTTTTTTTTTT MOQGAD      TELAPSE      419.61 TCPU      418.12
 TTTTTTTTTTTTTTTTTTTTTTTTTTTTTT SHELLXN     TELAPSE      442.48 TCPU      440.97
 TTTTTTTTTTTTTTTTTTTTTTTTTTTTTT MONMO3      TELAPSE      451.94 TCPU      450.43
 NUMERICALLY INTEGRATED DENSITY    123.9999849405    123.9999840741
 TTTTTTTTTTTTTTTTTTTTTTTTTTTTTT NUMDFT      TELAPSE      452.46 TCPU      450.94
 CYC  12 ETOT(AU) -2.414539481281E+03 DETOT -1.31E-04 tst  2.70E-05 PX  1.26E-02
 TTTTTTTTTTTTTTTTTTTTTTTTTTTTTT DIIS        TELAPSE      452.52 TCPU      451.00
 DIIS TEST: 0.11556E-02 AT SCF   CYCLE  12 - DIIS ACTIVE - HISTORY:    12 CYCLES
 TTTTTTTTTTTTTTTTTTTTTTTTTTTTTT FDIK        TELAPSE      453.58 TCPU      452.05
 POSSIBLY CONDUCTING STATE - EFERMI(AU) -1.6468638E-01 (RES. CHARGE  5.17E-11;IT.  8)
 TTTTTTTTTTTTTTTTTTTTTTTTTTTTTT PDIG        TELAPSE      453.97 TCPU      452.44
 CHARGE NORMALIZATION FACTOR   1.00000000
 TOTAL ATOMIC CHARGES:
  24.5552420  24.5552420  24.5535039  24.5535039  24.5595124  24.5595124
  24.5520874  24.5520874  12.8877242  12.8877242  12.8919301  12.8919301
 SUMMED SPIN DENSITY           0.00000059
 TOTAL ATOMIC SPINS  :
   0.0000023   0.0000023  -0.0000023  -0.0000023   0.0000004   0.0000004
  -0.0000001  -0.0000001  -0.0000053  -0.0000053   0.0000054   0.0000054
 TTTTTTTTTTTTTTTTTTTTTTTTTTTTTT MOQGAD      TELAPSE      453.97 TCPU      452.45
 TTTTTTTTTTTTTTTTTTTTTTTTTTTTTT SHELLXN     TELAPSE      476.88 TCPU      475.29
 TTTTTTTTTTTTTTTTTTTTTTTTTTTTTT MONMO3      TELAPSE      486.26 TCPU      484.66
 NUMERICALLY INTEGRATED DENSITY    123.9999848072    123.9999842222
 TTTTTTTTTTTTTTTTTTTTTTTTTTTTTT NUMDFT      TELAPSE      486.77 TCPU      485.18
 CYC  13 ETOT(AU) -2.414539586197E+03 DETOT -1.05E-04 tst  2.86E-06 PX  3.80E-03
 TTTTTTTTTTTTTTTTTTTTTTTTTTTTTT DIIS        TELAPSE      486.83 TCPU      485.24
 DIIS TEST: 0.12442E-03 AT SCF   CYCLE  13 - DIIS ACTIVE - HISTORY:    13 CYCLES
 TTTTTTTTTTTTTTTTTTTTTTTTTTTTTT FDIK        TELAPSE      487.87 TCPU      486.27
 POSSIBLY CONDUCTING STATE - EFERMI(AU) -1.6466906E-01 (RES. CHARGE  3.40E-11;IT.  6)
 TTTTTTTTTTTTTTTTTTTTTTTTTTTTTT PDIG        TELAPSE      488.26 TCPU      486.66
 CHARGE NORMALIZATION FACTOR   1.00000000
 TOTAL ATOMIC CHARGES:
  24.5508197  24.5508197  24.5591316  24.5591316  24.5538766  24.5538766
  24.5562079  24.5562079  12.8892074  12.8892074  12.8907569  12.8907569
 SUMMED SPIN DENSITY           0.00000019
 TOTAL ATOMIC SPINS  :
   0.0000025   0.0000025  -0.0000027  -0.0000027   0.0000014   0.0000014
  -0.0000020  -0.0000020  -0.0000042  -0.0000042   0.0000051   0.0000051
 TTTTTTTTTTTTTTTTTTTTTTTTTTTTTT MOQGAD      TELAPSE      488.26 TCPU      486.67
 TTTTTTTTTTTTTTTTTTTTTTTTTTTTTT SHELLXN     TELAPSE      511.12 TCPU      509.49
 TTTTTTTTTTTTTTTTTTTTTTTTTTTTTT MONMO3      TELAPSE      520.52 TCPU      518.89
 NUMERICALLY INTEGRATED DENSITY    123.9999846090    123.9999844151
 TTTTTTTTTTTTTTTTTTTTTTTTTTTTTT NUMDFT      TELAPSE      521.03 TCPU      519.40
 CYC  14 ETOT(AU) -2.414539592511E+03 DETOT -6.31E-06 tst  1.06E-06 PX  2.00E-03
 TTTTTTTTTTTTTTTTTTTTTTTTTTTTTT DIIS        TELAPSE      521.09 TCPU      519.46
 DIIS TEST: 0.84660E-04 AT SCF   CYCLE  14 - DIIS ACTIVE - HISTORY:    14 CYCLES
 TTTTTTTTTTTTTTTTTTTTTTTTTTTTTT FDIK        TELAPSE      522.20 TCPU      520.56
 POSSIBLY CONDUCTING STATE - EFERMI(AU) -1.6471292E-01 (RES. CHARGE  1.69E-11;IT.  6)
 TTTTTTTTTTTTTTTTTTTTTTTTTTTTTT PDIG        TELAPSE      522.59 TCPU      520.96
 CHARGE NORMALIZATION FACTOR   1.00000000
 TOTAL ATOMIC CHARGES:
  24.5533564  24.5533564  24.5565331  24.5565331  24.5557175  24.5557175
  24.5538126  24.5538126  12.8887616  12.8887616  12.8918189  12.8918189
 SUMMED SPIN DENSITY           0.00000015
 TOTAL ATOMIC SPINS  :
   0.0000021   0.0000021  -0.0000014  -0.0000014   0.0000010   0.0000010
  -0.0000010  -0.0000010  -0.0000043  -0.0000043   0.0000037   0.0000037
 TTTTTTTTTTTTTTTTTTTTTTTTTTTTTT MOQGAD      TELAPSE      522.60 TCPU      520.96
 TTTTTTTTTTTTTTTTTTTTTTTTTTTTTT SHELLXN     TELAPSE      545.46 TCPU      543.80
 TTTTTTTTTTTTTTTTTTTTTTTTTTTTTT MONMO3      TELAPSE      554.90 TCPU      553.24
 NUMERICALLY INTEGRATED DENSITY    123.9999845875    123.9999844377
 TTTTTTTTTTTTTTTTTTTTTTTTTTTTTT NUMDFT      TELAPSE      555.41 TCPU      553.75
 CYC  15 ETOT(AU) -2.414539599030E+03 DETOT -6.52E-06 tst  2.71E-07 PX  1.04E-03
 TTTTTTTTTTTTTTTTTTTTTTTTTTTTTT DIIS        TELAPSE      555.47 TCPU      553.80
 DIIS TEST: 0.17355E-04 AT SCF   CYCLE  15 - DIIS ACTIVE - HISTORY:    15 CYCLES
 TTTTTTTTTTTTTTTTTTTTTTTTTTTTTT FDIK        TELAPSE      556.78 TCPU      555.11
 POSSIBLY CONDUCTING STATE - EFERMI(AU) -1.6471419E-01 (RES. CHARGE  2.67E-10;IT.  4)
 TTTTTTTTTTTTTTTTTTTTTTTTTTTTTT PDIG        TELAPSE      557.17 TCPU      555.50
 CHARGE NORMALIZATION FACTOR   1.00000000
 TOTAL ATOMIC CHARGES:
  24.5529093  24.5529093  24.5565753  24.5565753  24.5555010  24.5555010
  24.5537263  24.5537263  12.8892476  12.8892476  12.8920405  12.8920405
 SUMMED SPIN DENSITY           0.00000015
 TOTAL ATOMIC SPINS  :
   0.0000014   0.0000014  -0.0000011  -0.0000011   0.0000005   0.0000005
  -0.0000007  -0.0000007  -0.0000034  -0.0000034   0.0000033   0.0000033
 TTTTTTTTTTTTTTTTTTTTTTTTTTTTTT MOQGAD      TELAPSE      557.17 TCPU      555.51
 TTTTTTTTTTTTTTTTTTTTTTTTTTTTTT SHELLXN     TELAPSE      580.04 TCPU      578.37
 TTTTTTTTTTTTTTTTTTTTTTTTTTTTTT MONMO3      TELAPSE      589.43 TCPU      587.74
 NUMERICALLY INTEGRATED DENSITY    123.9999845888    123.9999844394
 TTTTTTTTTTTTTTTTTTTTTTTTTTTTTT NUMDFT      TELAPSE      589.94 TCPU      588.25
 CYC  16 ETOT(AU) -2.414539599624E+03 DETOT -5.94E-07 tst  2.11E-09 PX  1.60E-04
 TTTTTTTTTTTTTTTTTTTTTTTTTTTTTT DIIS        TELAPSE      590.00 TCPU      588.31
 DIIS TEST: 0.45940E-06 AT SCF   CYCLE  16 - DIIS ACTIVE - HISTORY:    16 CYCLES
 TTTTTTTTTTTTTTTTTTTTTTTTTTTTTT FDIK        TELAPSE      591.17 TCPU      589.48
 POSSIBLY CONDUCTING STATE - EFERMI(AU) -1.6471233E-01 (RES. CHARGE  5.63E-10;IT.  4)
 TTTTTTTTTTTTTTTTTTTTTTTTTTTTTT PDIG        TELAPSE      591.56 TCPU      589.87
 CHARGE NORMALIZATION FACTOR   1.00000000
 TOTAL ATOMIC CHARGES:
  24.5528953  24.5528953  24.5563760  24.5563760  24.5555331  24.5555331
  24.5536130  24.5536130  12.8892972  12.8892972  12.8922854  12.8922854
 SUMMED SPIN DENSITY           0.00000006
 TOTAL ATOMIC SPINS  :
   0.0000008   0.0000008  -0.0000006  -0.0000006   0.0000003   0.0000003
  -0.0000005  -0.0000005  -0.0000024  -0.0000024   0.0000023   0.0000023
 TTTTTTTTTTTTTTTTTTTTTTTTTTTTTT MOQGAD      TELAPSE      591.57 TCPU      589.88
 TTTTTTTTTTTTTTTTTTTTTTTTTTTTTT SHELLXN     TELAPSE      614.43 TCPU      612.72
 TTTTTTTTTTTTTTTTTTTTTTTTTTTTTT MONMO3      TELAPSE      623.89 TCPU      622.15
 NUMERICALLY INTEGRATED DENSITY    123.9999845457    123.9999844821
 TTTTTTTTTTTTTTTTTTTTTTTTTTTTTT NUMDFT      TELAPSE      624.40 TCPU      622.66
 CYC  17 ETOT(AU) -2.414539599587E+03 DETOT  3.69E-08 tst  7.84E-10 PX  5.78E-05
 TTTTTTTTTTTTTTTTTTTTTTTTTTTTTT DIIS        TELAPSE      624.46 TCPU      622.72
 DIIS TEST: 0.10028E-06 AT SCF   CYCLE  17 - DIIS ACTIVE - HISTORY:    17 CYCLES
 TTTTTTTTTTTTTTTTTTTTTTTTTTTTTT FDIK        TELAPSE      625.57 TCPU      623.83
 POSSIBLY CONDUCTING STATE - EFERMI(AU) -1.6471478E-01 (RES. CHARGE  2.84E-14;IT.  6)
 TTTTTTTTTTTTTTTTTTTTTTTTTTTTTT PDIG        TELAPSE      625.96 TCPU      624.22
 CHARGE NORMALIZATION FACTOR   1.00000000
 TOTAL ATOMIC CHARGES:
  24.5528409  24.5528409  24.5564420  24.5564420  24.5554653  24.5554653
  24.5535501  24.5535501  12.8894193  12.8894193  12.8922825  12.8922825
 SUMMED SPIN DENSITY           0.00000004
 TOTAL ATOMIC SPINS  :
   0.0000006   0.0000006  -0.0000004  -0.0000004   0.0000002   0.0000002
  -0.0000004  -0.0000004  -0.0000019  -0.0000019   0.0000018   0.0000018
 TTTTTTTTTTTTTTTTTTTTTTTTTTTTTT MOQGAD      TELAPSE      625.97 TCPU      624.23
 TTTTTTTTTTTTTTTTTTTTTTTTTTTTTT SHELLXN     TELAPSE      648.79 TCPU      647.04
 +++ ENERGIES IN A.U. +++
 ::: EXT EL-POLE                                  -6.1842030591876E+03
 ::: EXT EL-SPHEROPOLE                             7.6930967888401E+01
 ::: BIELET ZONE E-E                               6.9760720394002E+03
 ::: TOTAL E-E                                     8.6879994810102E+02
 ::: TOTAL E-N + N-E                              -2.8291093307938E+03
 ::: TOTAL N-N                                    -1.2143030565823E+03
 ::: KINETIC ENERGY                                9.1507536607501E+02
 ::: PSEUDO TOTAL   ENERGY                        -2.2595370732000E+03
 ::: VIRIAL COEFFICIENT                            5.7649579819827E-01
 TTTTTTTTTTTTTTTTTTTTTTTTTTTTTT MONMO3      TELAPSE      658.24 TCPU      656.49
 NUMERICALLY INTEGRATED DENSITY    123.9999845330    123.9999844957
 TTTTTTTTTTTTTTTTTTTTTTTTTTTTTT NUMDFT      TELAPSE      658.75 TCPU      657.00
 CYC  18 ETOT(AU) -2.414539599660E+03 DETOT -7.25E-08 tst  8.92E-10 PX  5.78E-05

 == SCF ENDED - CONVERGENCE ON ENERGY      E(AU) -2.4145395996598E+03 CYCLES  18


 ENERGY EXPRESSION=HARTREE+FOCK EXCH*0.00000+(HSE06      EXCH)*1.00000+PBE        CORR


 TOTAL ENERGY(DFT)(AU)( 18) -2.4145395996598E+03 DE-7.3E-08 tester 8.9E-10
 TTTTTTTTTTTTTTTTTTTTTTTTTTTTTT EDFT        TELAPSE      658.76 TCPU      657.00

 *******************************************************************************
 *                             FORCE CALCULATION                               *
 *******************************************************************************

 TTTTTTTTTTTTTTTTTTTTTTTTTTTTTT NUMDFG      TELAPSE      661.30 TCPU      659.54
 INFORMATION **** GENPOG **** BIPO BUFFER LENGTH (WORDS) =     1162200
 TTTTTTTTTTTTTTTTTTTTTTTTTTTTTT SHELXG      TELAPSE      841.83 TCPU      839.97


 D3 DISPERSION ENERGY (AU)       -2.8734330395437E-01
 TOTAL ENERGY + DISP (AU)        -2.4148269429637E+03

 CARTESIAN FORCES IN HARTREE/BOHR (ANALYTICAL)
   ATOM                     X                   Y                   Z
   1 252            -2.950359433346E-16  2.344551650974E-03  1.075460489333E-02
   2 252            -5.404014030578E-17 -2.344551650968E-03  1.075460489344E-02
   3 252             5.027118086894E-16  2.171836479739E-03  1.767606085764E-02
   4 252             6.115058569325E-17 -2.171836479735E-03  1.767606085754E-02
   5 252            -7.714473949239E-17 -1.531528561212E-03 -1.786032874102E-02
   6 252            -2.518670855756E-16  1.531528561209E-03 -1.786032874093E-02
   7 252            -2.766076769140E-17 -2.216670537348E-03 -1.077724530215E-02
   8 252             2.488738364799E-17  2.216670537348E-03 -1.077724530227E-02
   9 274            -1.141776682961E-16  3.213088043001E-03 -5.487259120023E-04
  10 274             5.387353278451E-16 -3.213088043007E-03 -5.487259119933E-04
  11 274            -1.106340550772E-17  3.873749630674E-03  7.556342040772E-04
  12 274            -2.947606321961E-16 -3.873749630671E-03  7.556342040751E-04

 RESULTANT FORCE     1.734723475977E-18  3.649858193455E-15 -2.701172618913E-13

 ATOMIC PART

 SYMMETRY ALLOWED FORCES (ANALYTICAL) (DIRECTION, FORCE)

    1  3.3156967E-03    2  1.6660962E-02    3  3.0714406E-03    4  3.1349211E-02
    5 -2.1659085E-03    6 -1.7559024E-02    7 -3.1348455E-03    8 -1.2563950E-02
    9  4.5439927E-03   10 -1.3043601E-03   11  5.4783093E-03

 CELL PART

 GRADIENT WITH RESPECT TO THE CELL PARAMETER IN HARTREE/BOHR
ORDER: -D/DA1X, -D/DA1Y, -D/DA1Z
       -D/DA2X, -D/DA2Y, -D/DA2Z
       -D/DA3X, -D/DA3Y, -D/DA3Z
 -0.113615901194E+00 -0.740413469081E-15  0.811002391635E-14
  0.100019276303E-15 -0.629074707949E-01  0.389741608916E-15
 -0.713366079634E-16 -0.339173251573E-14 -0.269434372714E-01

STRESS TENSOR, IN HARTREE/BOHR^3:
ORDER: 11 12 13
       21 22 23
       31 32 33
  0.336419356232E-03 -0.530465930351E-18  0.900830307859E-18
  0.219238170007E-17  0.333638387065E-03  0.428303998963E-16
 -0.240139716035E-16 -0.206704800126E-17  0.340238561728E-03

PRESSURE FROM THE STRESS TENSOR,
IN HARTREE/BOHR^3: -0.33677E-03
PRESSURE IN GIGAPASCAL: -0.9908E+01
CONVERSION FACTOR: 1 HARTREE/BOHR^3= 29421 GIGAPASCAL
WHEN USING VALUES FOR BOHR RADIUS AND HARTREE
FROM IUPAC WEBSITE, APRIL 2009
ENTHALPY: -2.4155831738651E+03

 SYMMETRY ALLOWED FORCES (ANALYTICAL) (DIRECTION, FORCE)

    1 -6.8443730E-02    2  6.4720491E-05    3  4.6127449E-04
 TTTTTTTTTTTTTTTTTTTTTTTTTTTTTT TOTGRA_C    TELAPSE      930.16 TCPU      928.26
 INFORMATION **** optc001 **** GEOMETRY OUTPUT FILE
 CLASSICAL MODEL (SCHLEGEL) USED AS INITIAL HESSIAN MATRIX
 REFERENCE GEOMETRY DEFINED

 MAX GRADIENT      0.068444  THRESHOLD              0.000450 CONVERGED NO
 RMS GRADIENT      0.021545  THRESHOLD              0.000300 CONVERGED NO

 GRADIENT NORM     0.080614  GRADIENT THRESHOLD     0.500000

 EIGENVALUES OF THE ESTIMATED HESSIAN
  0.1030E-01  0.1339E-01  0.3220E-01  0.4271E-01  0.1000      0.1506    
  0.1638      0.1827      0.2121      0.2943      0.3899      0.4243    
  0.5430      0.6653    
 NEWTON STEP ( 0.1963554969E+01) EXCEEDS TRUST RADIUS ( 0.5000000000E+00)
 LEVEL SHIFT     0.6667258164E-02

 INITIAL TRUST RADIUS    0.5000000000E+00

 PREDICTED ENERGY CHANGE    -0.211E-01

 INITIAL DISPLACEMENTS
 -0.026510 -0.088379  0.021058 -0.096734  0.013047  0.082043 -0.002103  0.030115
  0.010848 -0.000473 -0.024819 -0.441006  0.010209  0.168962
 TTTTTTTTTTTTTTTTTTTTTTTTTTTTTT OPTI        TELAPSE      930.46 TCPU      928.29

 OPTOPTOPTOPTOPTOPTOPTOPTOPTOPTOPTOPTOPTOPTOPTOPTOPTOPTOPTOPTOPTOPTOPTOPTOPTOPT

 - INFORMATION ON SCF MOVED TO SCFOUT.LOG
 GEOMETRY OPTIMIZATION INFORMATION STORED IN OPTINFO.DAT

 OPTOPTOPTOPTOPTOPTOPTOPTOPTOPTOPTOPTOPTOPTOPTOPTOPTOPTOPTOPTOPTOPTOPTOPTOPTOPT
 *******************************************************************************
 COORDINATE AND CELL OPTIMIZATION - POINT    2
 *******************************************************************************
 LATTICE PARAMETERS (ANGSTROMS AND DEGREES) - BOHR = 0.5291772083 ANGSTROM
 PRIMITIVE CELL - CENTRING CODE 1/0 VOLUME=   319.644417 - DENSITY  9.221 g/cm^3
         A              B              C           ALPHA      BETA       GAMMA 
     3.47378075     6.24984480    14.72297201    90.000000  90.000000  90.000000
 *******************************************************************************
 ATOMS IN THE ASYMMETRIC UNIT    6 - ATOMS IN THE UNIT CELL:   12
     ATOM                 X/A                 Y/B                 Z/C    
 *******************************************************************************
      1 T 252 TE   -5.000000000000E-01 -2.057739591603E-01 -9.177179485689E-02
      2 F 252 TE    0.000000000000E+00  2.057739591603E-01  4.082282051431E-01
      3 T 252 TE   -5.000000000000E-01 -3.014797086596E-01  3.674948643124E-01
      4 F 252 TE    0.000000000000E+00  3.014797086596E-01 -1.325051356876E-01
      5 T 252 TE    0.000000000000E+00 -1.414853644675E-01 -3.513965218301E-01
      6 F 252 TE   -5.000000000000E-01  1.414853644675E-01  1.486034781699E-01
      7 T 252 TE    0.000000000000E+00 -3.521548733176E-01  1.057942997580E-01
      8 F 252 TE   -5.000000000000E-01  3.521548733176E-01 -3.942057002420E-01
      9 T 274 W    -5.000000000000E-01 -4.335592148667E-02 -4.852337581467E-01
     10 F 274 W     0.000000000000E+00  4.335592148667E-02  1.476624185332E-02
     11 T 274 W    -5.000000000000E-01  3.981464452330E-01  4.029107632294E-04
     12 F 274 W     0.000000000000E+00 -3.981464452330E-01 -4.995970892368E-01

 T = ATOM BELONGING TO THE ASYMMETRIC UNIT

 TOTAL ENERGY(DFT)(AU)( 11) -2.4148482821850E+03     DE (AU)   -2.134E-02

 UPDATED TRUST RADIUS     0.100E+01

 SYMMETRY ALLOWED FORCES  (COORDINATE, FORCE)

    1  2.2671286E-03    2  1.1629721E-02    3  2.3794285E-03    4  1.4993001E-02
    5 -1.8147025E-03    6 -1.3719069E-02    7 -2.3266524E-03    8 -6.9199912E-03
    9  9.6657905E-03   10 -1.1502828E-03   11  1.0540351E-02   12 -4.9844415E-02
   13  1.2870153E-03   14  1.4316186E-03

 GRADIENT NORM     0.057530  GRADIENT THRESHOLD     0.500000

 EIGENVALUES OF THE ESTIMATED HESSIAN
  0.7456E-02  0.1046E-01  0.3669E-01  0.5339E-01  0.1008      0.1507    
  0.1641      0.1818      0.2123      0.3458      0.3980      0.4446    
  0.5434      0.6669    
 NEWTON STEP ( 0.2815100841E+01) EXCEEDS TRUST RADIUS ( 0.1000000000E+01)
 LEVEL SHIFT    -0.1277268906E-01

 PREDICTED ENERGY CHANGE    -0.269E-01

 MAX GRADIENT      0.049844  THRESHOLD              0.000450 CONVERGED NO
 RMS GRADIENT      0.015375  THRESHOLD              0.000300 CONVERGED NO
 MAX DISPLAC.      0.869332  THRESHOLD              0.001800 CONVERGED NO
 RMS DISPLAC.      0.267261  THRESHOLD              0.001200 CONVERGED NO
 TTTTTTTTTTTTTTTTTTTTTTTTTTTTTT OPTI        TELAPSE     1664.22 TCPU     1660.25
 *******************************************************************************
 COORDINATE AND CELL OPTIMIZATION - POINT    3
 *******************************************************************************
 LATTICE PARAMETERS (ANGSTROMS AND DEGREES) - BOHR = 0.5291772083 ANGSTROM
 PRIMITIVE CELL - CENTRING CODE 1/0 VOLUME=   295.107098 - DENSITY  9.988 g/cm^3
         A              B              C           ALPHA      BETA       GAMMA 
     3.39335286     6.14642855    14.14906677    90.000000  90.000000  90.000000
 *******************************************************************************
 ATOMS IN THE ASYMMETRIC UNIT    6 - ATOMS IN THE UNIT CELL:   12
     ATOM                 X/A                 Y/B                 Z/C    
 *******************************************************************************
      1 T 252 TE   -5.000000000000E-01 -2.081076711441E-01 -9.523747638001E-02
      2 F 252 TE    0.000000000000E+00  2.081076711441E-01  4.047625236200E-01
      3 T 252 TE   -5.000000000000E-01 -3.001148426185E-01  3.628710959689E-01
      4 F 252 TE    0.000000000000E+00  3.001148426185E-01 -1.371289040311E-01
      5 T 252 TE    0.000000000000E+00 -1.410990726162E-01 -3.463953976859E-01
      6 F 252 TE   -5.000000000000E-01  1.410990726162E-01  1.536046023141E-01
      7 T 252 TE    0.000000000000E+00 -3.512899573683E-01  1.085841597593E-01
      8 F 252 TE   -5.000000000000E-01  3.512899573683E-01 -3.914158402407E-01
      9 T 274 W    -5.000000000000E-01 -4.058966259783E-02 -4.850649144204E-01
     10 F 274 W     0.000000000000E+00  4.058966259783E-02  1.493508557960E-02
     11 T 274 W    -5.000000000000E-01  3.991696080945E-01  5.325327580492E-04
     12 F 274 W     0.000000000000E+00 -3.991696080945E-01 -4.994674672420E-01

 T = ATOM BELONGING TO THE ASYMMETRIC UNIT

 TOTAL ENERGY(DFT)(AU)( 11) -2.4148746218325E+03     DE (AU)   -2.634E-02

 UPDATED TRUST RADIUS     0.200E+01

 SYMMETRY ALLOWED FORCES  (COORDINATE, FORCE)

    1  8.7647582E-04    2 -1.7970775E-03    3  1.6635943E-03    4 -6.4112243E-03
    5 -2.1416156E-03    6 -3.5723131E-03    7 -2.0438828E-03    8  6.9045015E-03
    9  5.0332890E-03   10 -1.9381982E-03   11  5.8507124E-03   12 -1.1672728E-02
   13  2.3351535E-03   14  3.6611095E-03

 GRADIENT NORM     0.018317  GRADIENT THRESHOLD     0.500000

 EIGENVALUES OF THE ESTIMATED HESSIAN
  0.8563E-02  0.1039E-01  0.3640E-01  0.5496E-01  0.1011      0.1504    
  0.1650      0.1777      0.2123      0.3459      0.3984      0.4542    
  0.5432      0.6669    

 PREDICTED ENERGY CHANGE    -0.851E-02

 MAX GRADIENT      0.011673  THRESHOLD              0.000450 CONVERGED NO
 RMS GRADIENT      0.004895  THRESHOLD              0.000300 CONVERGED NO
 MAX DISPLAC.      0.862856  THRESHOLD              0.001800 CONVERGED NO
 RMS DISPLAC.      0.357180  THRESHOLD              0.001200 CONVERGED NO
 TTTTTTTTTTTTTTTTTTTTTTTTTTTTTT OPTI        TELAPSE     2384.03 TCPU     2379.37
 *******************************************************************************
 COORDINATE AND CELL OPTIMIZATION - POINT    4
 *******************************************************************************
 LATTICE PARAMETERS (ANGSTROMS AND DEGREES) - BOHR = 0.5291772083 ANGSTROM
 PRIMITIVE CELL - CENTRING CODE 1/0 VOLUME=   272.981751 - DENSITY 10.798 g/cm^3
         A              B              C           ALPHA      BETA       GAMMA 
     3.33914160     6.12666692    13.34364590    90.000000  90.000000  90.000000
 *******************************************************************************
 ATOMS IN THE ASYMMETRIC UNIT    6 - ATOMS IN THE UNIT CELL:   12
     ATOM                 X/A                 Y/B                 Z/C    
 *******************************************************************************
      1 T 252 TE   -5.000000000000E-01 -2.101235307082E-01 -1.017943224240E-01
      2 F 252 TE    0.000000000000E+00  2.101235307082E-01  3.982056775760E-01
      3 T 252 TE   -5.000000000000E-01 -2.983508200909E-01  3.558198777857E-01
      4 F 252 TE    0.000000000000E+00  2.983508200909E-01 -1.441801222143E-01
      5 T 252 TE    0.000000000000E+00 -1.423626095900E-01 -3.382003311330E-01
      6 F 252 TE   -5.000000000000E-01  1.423626095900E-01  1.617996688670E-01
      7 T 252 TE    0.000000000000E+00 -3.502961975644E-01  1.137907433026E-01
      8 F 252 TE   -5.000000000000E-01  3.502961975644E-01 -3.862092566974E-01
      9 T 274 W    -5.000000000000E-01 -3.815191791277E-02 -4.850243757609E-01
     10 F 274 W     0.000000000000E+00  3.815191791277E-02  1.497562423906E-02
     11 T 274 W    -5.000000000000E-01  4.004381454896E-01  6.984082296135E-04
     12 F 274 W     0.000000000000E+00 -4.004381454896E-01 -4.993015917704E-01

 T = ATOM BELONGING TO THE ASYMMETRIC UNIT

 MAXIMUM ATOM DISPLACEMENT WITH RESPECT TO
 THE PRESENT REFERENCE GEOMETRY:   1.592010617195E+00

 REFERENCE GEOMETRY WILL BE CHANGED

 TOTAL ENERGY(DFT)(AU)( 14) -2.4148796912567E+03     DE (AU)   -5.069E-03

 SYMMETRY ALLOWED FORCES  (COORDINATE, FORCE)

    1  5.4939259E-04    2  5.3879038E-04    3  5.8672272E-04    4 -1.8462863E-02
    5 -7.6580701E-04    6 -7.9515902E-04    7 -2.5831265E-03    8  8.4069272E-03
    9  2.7676296E-03   10 -2.8894121E-03   11  2.3099830E-03   12  1.5326851E-02
   13  6.3505297E-03   14 -4.5436724E-04

 GRADIENT NORM     0.026780  GRADIENT THRESHOLD     0.500000

 HESSIAN UPDATE SKIPPED

 EIGENVALUES OF THE ESTIMATED HESSIAN
  0.8563E-02  0.1039E-01  0.3640E-01  0.5496E-01  0.1011      0.1504    
  0.1650      0.1777      0.2123      0.3459      0.3984      0.4542    
  0.5432      0.6669    

 PREDICTED ENERGY CHANGE    -0.227E-02

 MAX GRADIENT      0.018463  THRESHOLD              0.000450 CONVERGED NO
 RMS GRADIENT      0.007157  THRESHOLD              0.000300 CONVERGED NO
 MAX DISPLAC.      0.289870  THRESHOLD              0.001800 CONVERGED NO
 RMS DISPLAC.      0.100055  THRESHOLD              0.001200 CONVERGED NO
 TTTTTTTTTTTTTTTTTTTTTTTTTTTTTT OPTI        TELAPSE     3712.00 TCPU     3706.05
 *******************************************************************************
 COORDINATE AND CELL OPTIMIZATION - POINT    5
 *******************************************************************************
 LATTICE PARAMETERS (ANGSTROMS AND DEGREES) - BOHR = 0.5291772083 ANGSTROM
 PRIMITIVE CELL - CENTRING CODE 1/0 VOLUME=   280.191363 - DENSITY 10.520 g/cm^3
         A              B              C           ALPHA      BETA       GAMMA 
     3.38876559     6.13028306    13.48753817    90.000000  90.000000  90.000000
 *******************************************************************************
 ATOMS IN THE ASYMMETRIC UNIT    6 - ATOMS IN THE UNIT CELL:   12
     ATOM                 X/A                 Y/B                 Z/C    
 *******************************************************************************
      1 T 252 TE   -5.000000000000E-01 -2.099678340785E-01 -9.983412466295E-02
      2 F 252 TE    0.000000000000E+00  2.099678340785E-01  4.001658753370E-01
      3 T 252 TE   -5.000000000000E-01 -2.984274707097E-01  3.563396842114E-01
      4 F 252 TE    0.000000000000E+00  2.984274707097E-01 -1.436603157886E-01
      5 T 252 TE    0.000000000000E+00 -1.404802068100E-01 -3.401720692945E-01
      6 F 252 TE   -5.000000000000E-01  1.404802068100E-01  1.598279307055E-01
      7 T 252 TE    0.000000000000E+00 -3.530261688612E-01  1.134448213963E-01
      8 F 252 TE   -5.000000000000E-01  3.530261688612E-01 -3.865551786037E-01
      9 T 274 W    -5.000000000000E-01 -3.747356712523E-02 -4.850902215508E-01
     10 F 274 W     0.000000000000E+00  3.747356712523E-02  1.490977844925E-02
     11 T 274 W    -5.000000000000E-01  3.987202708435E-01  6.019099005450E-04
     12 F 274 W     0.000000000000E+00 -3.987202708435E-01 -4.993980900995E-01

 T = ATOM BELONGING TO THE ASYMMETRIC UNIT

 TOTAL ENERGY(DFT)(AU)( 13) -2.4148816871206E+03     DE (AU)   -1.996E-03

 UPDATED TRUST RADIUS     0.400E+01

 SYMMETRY ALLOWED FORCES  (COORDINATE, FORCE)

    1  9.7269395E-04    2 -9.8187163E-05    3  6.8830981E-04    4 -6.4193008E-03
    5 -5.0717319E-04    6  2.3856725E-04    7 -3.1964041E-03    8  4.9478593E-03
    9  1.6185818E-03   10  1.2841247E-03   11  2.8910961E-03   12 -4.3251738E-04
   13  1.6432796E-03   14  1.4456709E-03

 GRADIENT NORM     0.009760  GRADIENT THRESHOLD     0.500000

 EIGENVALUES OF THE ESTIMATED HESSIAN
  0.1007E-01  0.1376E-01  0.3421E-01  0.5070E-01  0.1013      0.1468    
  0.1649      0.1734      0.2081      0.3234      0.3918      0.4291    
  0.5424      0.6685    

 PREDICTED ENERGY CHANGE    -0.788E-03

 MAX GRADIENT      0.006419  THRESHOLD              0.000450 CONVERGED NO
 RMS GRADIENT      0.002608  THRESHOLD              0.000300 CONVERGED NO
 MAX DISPLAC.      0.208918  THRESHOLD              0.001800 CONVERGED NO
 RMS DISPLAC.      0.080415  THRESHOLD              0.001200 CONVERGED NO
 TTTTTTTTTTTTTTTTTTTTTTTTTTTTTT OPTI        TELAPSE     4964.65 TCPU     4957.38
 *******************************************************************************
 COORDINATE AND CELL OPTIMIZATION - POINT    6
 *******************************************************************************
 LATTICE PARAMETERS (ANGSTROMS AND DEGREES) - BOHR = 0.5291772083 ANGSTROM
 PRIMITIVE CELL - CENTRING CODE 1/0 VOLUME=   277.109092 - DENSITY 10.637 g/cm^3
         A              B              C           ALPHA      BETA       GAMMA 
     3.39773720     6.12840741    13.30801743    90.000000  90.000000  90.000000
 *******************************************************************************
 ATOMS IN THE ASYMMETRIC UNIT    6 - ATOMS IN THE UNIT CELL:   12
     ATOM                 X/A                 Y/B                 Z/C    
 *******************************************************************************
      1 T 252 TE    5.000000000000E-01 -2.099825778249E-01 -1.009055185992E-01
      2 F 252 TE    0.000000000000E+00  2.099825778249E-01  3.990944814008E-01
      3 T 252 TE    5.000000000000E-01 -2.982565340598E-01  3.541948695926E-01
      4 F 252 TE    0.000000000000E+00  2.982565340598E-01 -1.458051304074E-01
      5 T 252 TE    0.000000000000E+00 -1.398430079767E-01 -3.383344957324E-01
      6 F 252 TE    5.000000000000E-01  1.398430079767E-01  1.616655042676E-01
      7 T 252 TE    0.000000000000E+00 -3.546540028204E-01  1.148963565549E-01
      8 F 252 TE    5.000000000000E-01  3.546540028204E-01 -3.851036434451E-01
      9 T 274 W     5.000000000000E-01 -3.654837507531E-02 -4.849820776280E-01
     10 F 274 W     0.000000000000E+00  3.654837507531E-02  1.501792237204E-02
     11 T 274 W     5.000000000000E-01  3.982869932382E-01  4.208658120810E-04
     12 F 274 W     0.000000000000E+00 -3.982869932382E-01 -4.995791341879E-01

 T = ATOM BELONGING TO THE ASYMMETRIC UNIT

 TOTAL ENERGY(DFT)(AU)( 10) -2.4148828356486E+03     DE (AU)   -1.149E-03

 UPDATED TRUST RADIUS     0.400E+01

 SYMMETRY ALLOWED FORCES  (COORDINATE, FORCE)

    1  5.1711021E-04    2  1.3903489E-03    3  1.2713708E-03    4 -2.7790746E-03
    5 -7.5380148E-04    6 -1.2124926E-04    7 -2.7028809E-03    8  2.4611046E-03
    9 -2.4986213E-04   10  1.1159915E-03   11  8.0506236E-04   12 -2.2992274E-04
   13  1.2428226E-03   14  1.2059514E-03

 GRADIENT NORM     0.005522  GRADIENT THRESHOLD     0.500000

 EIGENVALUES OF THE ESTIMATED HESSIAN
  0.6858E-02  0.1078E-01  0.3220E-01  0.5119E-01  0.1022      0.1375    
  0.1648      0.1734      0.2040      0.3235      0.3944      0.4306    
  0.5401      0.6679    

 PREDICTED ENERGY CHANGE    -0.554E-03

 MAX GRADIENT      0.002779  THRESHOLD              0.000450 CONVERGED NO
 RMS GRADIENT      0.001476  THRESHOLD              0.000300 CONVERGED NO
 MAX DISPLAC.      0.258826  THRESHOLD              0.001800 CONVERGED NO
 RMS DISPLAC.      0.098447  THRESHOLD              0.001200 CONVERGED NO
 TTTTTTTTTTTTTTTTTTTTTTTTTTTTTT OPTI        TELAPSE     6049.61 TCPU     6041.14
 *******************************************************************************
 COORDINATE AND CELL OPTIMIZATION - POINT    7
 *******************************************************************************
 LATTICE PARAMETERS (ANGSTROMS AND DEGREES) - BOHR = 0.5291772083 ANGSTROM
 PRIMITIVE CELL - CENTRING CODE 1/0 VOLUME=   273.895749 - DENSITY 10.762 g/cm^3
         A              B              C           ALPHA      BETA       GAMMA 
     3.41373564     6.12804487    13.09282819    90.000000  90.000000  90.000000
 *******************************************************************************
 ATOMS IN THE ASYMMETRIC UNIT    6 - ATOMS IN THE UNIT CELL:   12
     ATOM                 X/A                 Y/B                 Z/C    
 *******************************************************************************
      1 T 252 TE    5.000000000000E-01 -2.105574294506E-01 -1.017245309350E-01
      2 F 252 TE    0.000000000000E+00  2.105574294506E-01  3.982754690650E-01
      3 T 252 TE    5.000000000000E-01 -2.971759909590E-01  3.515250067791E-01
      4 F 252 TE    0.000000000000E+00  2.971759909590E-01 -1.484749932209E-01
      5 T 252 TE    0.000000000000E+00 -1.389210616508E-01 -3.362865725052E-01
      6 F 252 TE    5.000000000000E-01  1.389210616508E-01  1.637134274947E-01
      7 T 252 TE    0.000000000000E+00 -3.578637502761E-01  1.165276063102E-01
      8 F 252 TE    5.000000000000E-01  3.578637502761E-01 -3.834723936898E-01
      9 T 274 W     5.000000000000E-01 -3.506367284556E-02 -4.848246830851E-01
     10 F 274 W     0.000000000000E+00  3.506367284556E-02  1.517531691489E-02
     11 T 274 W     5.000000000000E-01  3.966402430928E-01  7.317343608176E-05
     12 F 274 W     0.000000000000E+00 -3.966402430928E-01 -4.999268265639E-01

 T = ATOM BELONGING TO THE ASYMMETRIC UNIT

 TOTAL ENERGY(DFT)(AU)( 11) -2.4148833722472E+03     DE (AU)   -5.366E-04

 UPDATED TRUST RADIUS     0.400E+01

 SYMMETRY ALLOWED FORCES  (COORDINATE, FORCE)

    1 -6.2193493E-04    2  1.9305273E-03    3  1.1826201E-03    4  8.6670468E-04
    5  8.3331996E-05    6  6.8151689E-04    7 -9.6546736E-04    8 -8.1228820E-04
    9 -7.7039444E-04   10  6.4643374E-04   11  2.0605095E-04   12 -2.7353213E-05
   13 -2.2823724E-04   14  9.4645647E-04

 GRADIENT NORM     0.003214  GRADIENT THRESHOLD     0.500000

 EIGENVALUES OF THE ESTIMATED HESSIAN
  0.5588E-02  0.1146E-01  0.3432E-01  0.5088E-01  0.1017      0.1333    
  0.1641      0.1750      0.2078      0.3275      0.3966      0.4316    
  0.5378      0.6669    

 PREDICTED ENERGY CHANGE    -0.513E-04

 MAX GRADIENT      0.001931  THRESHOLD              0.000450 CONVERGED NO
 RMS GRADIENT      0.000859  THRESHOLD              0.000300 CONVERGED NO
 MAX DISPLAC.      0.064179  THRESHOLD              0.001800 CONVERGED NO
 RMS DISPLAC.      0.024396  THRESHOLD              0.001200 CONVERGED NO
 TTTTTTTTTTTTTTTTTTTTTTTTTTTTTT OPTI        TELAPSE     7196.02 TCPU     7186.65
 *******************************************************************************
 COORDINATE AND CELL OPTIMIZATION - POINT    8
 *******************************************************************************
 LATTICE PARAMETERS (ANGSTROMS AND DEGREES) - BOHR = 0.5291772083 ANGSTROM
 PRIMITIVE CELL - CENTRING CODE 1/0 VOLUME=   273.595145 - DENSITY 10.773 g/cm^3
         A              B              C           ALPHA      BETA       GAMMA 
     3.41439748     6.13634001    13.05824747    90.000000  90.000000  90.000000
 *******************************************************************************
 ATOMS IN THE ASYMMETRIC UNIT    6 - ATOMS IN THE UNIT CELL:   12
     ATOM                 X/A                 Y/B                 Z/C    
 *******************************************************************************
      1 T 252 TE   -5.000000000000E-01 -2.122021225536E-01 -1.016387239161E-01
      2 F 252 TE    0.000000000000E+00  2.122021225536E-01  3.983612760839E-01
      3 T 252 TE   -5.000000000000E-01 -2.958434839025E-01  3.511234998973E-01
      4 F 252 TE    0.000000000000E+00  2.958434839025E-01 -1.488765001027E-01
      5 T 252 TE    0.000000000000E+00 -1.376604725468E-01 -3.359556136079E-01
      6 F 252 TE   -5.000000000000E-01  1.376604725468E-01  1.640443863921E-01
      7 T 252 TE    0.000000000000E+00 -3.593108052639E-01  1.165862923877E-01
[...]
                    1.803  1.802  1.802  1.802  1.802  0.019  0.019  0.019
                    0.019  0.019  0.185  0.184  0.181  0.185  0.185  0.052
                    0.056  0.073  0.064  0.060
   9 W  274 12.937  0.021 -0.388  2.078  0.484  0.778  0.780  0.778  0.799
                    0.799  0.798  0.471  0.474  0.459  0.532  0.484  0.396
                    0.341  0.556 -0.143 -0.076 -0.078 -0.100 -0.132  0.672
                    0.499  0.457  0.493  0.663  0.005  0.005  0.005  0.006
                    0.008  0.006  0.007
  10 W  274 12.937  0.021 -0.388  2.078  0.484  0.778  0.780  0.778  0.799
                    0.799  0.798  0.471  0.474  0.459  0.532  0.484  0.396
                    0.341  0.556 -0.143 -0.076 -0.078 -0.100 -0.132  0.672
                    0.499  0.457  0.493  0.663  0.005  0.005  0.005  0.006
                    0.008  0.006  0.007
  11 W  274 12.957  0.021 -0.388  2.078  0.485  0.778  0.780  0.779  0.798
                    0.799  0.798  0.472  0.475  0.459  0.528  0.478  0.407
                    0.342  0.558 -0.146 -0.076 -0.082 -0.101 -0.134  0.675
                    0.498  0.471  0.495  0.668  0.006  0.006  0.005  0.006
                    0.008  0.006  0.006
  12 W  274 12.957  0.021 -0.388  2.078  0.485  0.778  0.780  0.779  0.798
                    0.799  0.798  0.472  0.475  0.459  0.528  0.478  0.407
                    0.342  0.558 -0.146 -0.076 -0.082 -0.101 -0.134  0.675
                    0.498  0.471  0.495  0.668  0.006  0.006  0.005  0.006
                    0.008  0.006  0.006

  ATOM    Z CHARGE  SHELL POPULATION

   1 TE 252 24.528  0.317 -0.931  2.616  1.927 -0.510  6.454  0.753  3.572
                    9.011  0.096  0.920  0.305
   2 TE 252 24.528  0.317 -0.931  2.616  1.927 -0.510  6.454  0.753  3.572
                    9.011  0.096  0.920  0.305
   3 TE 252 24.527  0.317 -0.932  2.615  1.956 -0.510  6.453  0.760  3.504
                    9.010  0.095  0.922  0.336
   4 TE 252 24.527  0.317 -0.932  2.615  1.956 -0.510  6.453  0.760  3.504
                    9.010  0.095  0.922  0.336
   5 TE 252 24.523  0.317 -0.932  2.616  1.960 -0.510  6.453  0.758  3.492
                    9.010  0.095  0.923  0.342
   6 TE 252 24.523  0.317 -0.932  2.616  1.960 -0.510  6.453  0.758  3.492
                    9.010  0.095  0.923  0.342
   7 TE 252 24.529  0.317 -0.931  2.615  1.927 -0.510  6.454  0.753  3.572
                    9.011  0.096  0.920  0.305
   8 TE 252 24.529  0.317 -0.931  2.615  1.927 -0.510  6.454  0.753  3.572
                    9.011  0.096  0.920  0.305
   9 W  274 12.937  0.021 -0.388  2.078  0.484  2.336  2.396  1.404  2.309
                   -0.529  2.783  0.042
  10 W  274 12.937  0.021 -0.388  2.078  0.484  2.336  2.396  1.404  2.309
                   -0.529  2.783  0.042
  11 W  274 12.957  0.021 -0.388  2.078  0.485  2.337  2.395  1.407  2.312
                   -0.539  2.807  0.043
  12 W  274 12.957  0.021 -0.388  2.078  0.485  2.337  2.395  1.407  2.312
                   -0.539  2.807  0.043

 OVERLAP POPULATION CONDENSED TO ATOMS FOR FIRST   6 NEIGHBORS

 ATOM A   1 TE   ATOM B     CELL      R(AB)/AU R(AB)/ANG    OVPOP(AB)
                 10 W    (  0  0  0)     5.184     2.743     0.107
                 11 W    (  0 -1  0)     5.197     2.750     0.098
                  1 TE   ( -1  0  0)     6.446     3.411     0.020
                  7 TE   (  0  0  0)     6.491     3.435     0.030
                  4 TE   (  0 -1  0)     6.671     3.530     0.018
                  5 TE   (  0  0  0)     6.702     3.546     0.017

 ATOM A   3 TE   ATOM B     CELL      R(AB)/AU R(AB)/ANG    OVPOP(AB)
                 12 W    (  0  0  1)     5.019     2.656     0.125
                  9 W    (  0  0  1)     5.062     2.679     0.121
                  3 TE   ( -1  0  0)     6.446     3.411     0.022
                  2 TE   (  0 -1  0)     6.671     3.530     0.018
                  6 TE   (  0  0  0)     6.693     3.542     0.016
                  7 TE   (  0  0  0)     6.695     3.543     0.017

 ATOM A   5 TE   ATOM B     CELL      R(AB)/AU R(AB)/ANG    OVPOP(AB)
                 12 W    (  0  0  0)     5.026     2.660     0.120
                  9 W    (  0  0  0)     5.034     2.664     0.126
                  5 TE   ( -1  0  0)     6.446     3.411     0.019
                  4 TE   (  0  0  0)     6.693     3.542     0.016
                  1 TE   (  0  0  0)     6.702     3.546     0.017
                  8 TE   (  0  0  0)     6.734     3.563     0.017

 ATOM A   7 TE   ATOM B     CELL      R(AB)/AU R(AB)/ANG    OVPOP(AB)
                 11 W    (  0 -1  0)     5.173     2.737     0.106
                 10 W    (  0  0  0)     5.201     2.752     0.102
                  7 TE   ( -1  0  0)     6.446     3.411     0.020
                  1 TE   (  0  0  0)     6.491     3.435     0.030
                  3 TE   (  0  0  0)     6.695     3.543     0.017
                  6 TE   (  0  0  0)     6.734     3.563     0.017

 ATOM A   9 W    ATOM B     CELL      R(AB)/AU R(AB)/ANG    OVPOP(AB)
                  5 TE   (  0  0  0)     5.034     2.664     0.126
                  3 TE   (  0  0 -1)     5.062     2.679     0.121
                  2 TE   (  0  0 -1)     5.184     2.743     0.107
                  8 TE   (  0  0  0)     5.201     2.752     0.102
                 12 W    (  0  0  0)     5.305     2.807     0.110
                  9 W    ( -1  0  0)     6.446     3.411     0.020

 ATOM A  11 W    ATOM B     CELL      R(AB)/AU R(AB)/ANG    OVPOP(AB)
                  4 TE   (  0  0  0)     5.019     2.656     0.125
                  6 TE   (  0  0  0)     5.026     2.660     0.120
                  7 TE   (  0  1  0)     5.173     2.737     0.106
                  1 TE   (  0  1  0)     5.197     2.750     0.098
                 10 W    (  0  0  0)     5.305     2.807     0.110
                 11 W    ( -1  0  0)     6.446     3.411     0.021
 TTTTTTTTTTTTTTTTTTTTTTTTTTTTTT AFTER FIRST TELAPSE    18693.84 TCPU    18667.24
 MMMMMMMMMMMMMMMMMMMMMMMMMMMMMMMMMMMMMMMMMMMMMMMMMMMMMMMMMMMMMMMMMMMMMMMMMMMMMMM
     ALPHA-BETA ELECTRONS
 MULLIKEN POPULATION ANALYSIS - NO. OF ELECTRONS    0.000000

  ATOM    Z CHARGE  A.O. POPULATION

   1 TE 252  0.000  0.000 -0.000  0.000 -0.000  0.000 -0.000 -0.000 -0.000
                    0.000 -0.000  0.000 -0.000  0.000 -0.000  0.000  0.000
                    0.000  0.000  0.000  0.000  0.000 -0.000 -0.000 -0.000
                   -0.000 -0.000  0.000  0.000  0.000  0.000  0.000  0.000
                   -0.000 -0.000  0.000 -0.000
   2 TE 252  0.000  0.000 -0.000  0.000 -0.000  0.000 -0.000 -0.000 -0.000
                    0.000 -0.000  0.000 -0.000  0.000 -0.000  0.000  0.000
                    0.000  0.000  0.000  0.000  0.000 -0.000 -0.000 -0.000
                   -0.000 -0.000  0.000  0.000  0.000  0.000  0.000  0.000
                   -0.000 -0.000  0.000 -0.000
   3 TE 252  0.000  0.000  0.000  0.000  0.000 -0.000  0.000  0.000 -0.000
                   -0.000 -0.000  0.000 -0.000  0.000  0.000 -0.000 -0.000
                    0.000  0.000  0.000  0.000  0.000 -0.000 -0.000 -0.000
                   -0.000 -0.000 -0.000  0.000  0.000  0.000  0.000  0.000
                    0.000 -0.000 -0.000  0.000
   4 TE 252  0.000  0.000  0.000  0.000  0.000 -0.000  0.000  0.000 -0.000
                   -0.000 -0.000  0.000 -0.000  0.000  0.000 -0.000 -0.000
                    0.000  0.000  0.000  0.000  0.000 -0.000 -0.000 -0.000
                   -0.000 -0.000 -0.000  0.000  0.000  0.000  0.000  0.000
                    0.000 -0.000 -0.000  0.000
   5 TE 252 -0.000  0.000 -0.000  0.000 -0.000  0.000  0.000 -0.000 -0.000
                    0.000  0.000 -0.000 -0.000 -0.000 -0.000 -0.000 -0.000
                    0.000  0.000 -0.000  0.000  0.000 -0.000 -0.000 -0.000
                   -0.000 -0.000 -0.000  0.000  0.000  0.000  0.000 -0.000
                   -0.000 -0.000 -0.000 -0.000
   6 TE 252 -0.000  0.000 -0.000  0.000 -0.000  0.000  0.000 -0.000 -0.000
                    0.000  0.000 -0.000 -0.000 -0.000 -0.000 -0.000 -0.000
                    0.000  0.000 -0.000  0.000  0.000 -0.000 -0.000 -0.000
                   -0.000 -0.000 -0.000  0.000  0.000  0.000  0.000 -0.000
                   -0.000 -0.000 -0.000 -0.000
   7 TE 252 -0.000  0.000 -0.000  0.000  0.000  0.000  0.000 -0.000 -0.000
                    0.000  0.000  0.000 -0.000  0.000  0.000 -0.000 -0.000
                   -0.000 -0.000 -0.000  0.000 -0.000  0.000  0.000  0.000
                   -0.000  0.000 -0.000  0.000 -0.000  0.000 -0.000 -0.000
                   -0.000  0.000 -0.000  0.000
   8 TE 252 -0.000  0.000 -0.000  0.000  0.000  0.000  0.000 -0.000 -0.000
                    0.000  0.000  0.000 -0.000  0.000  0.000 -0.000 -0.000
                   -0.000 -0.000 -0.000  0.000 -0.000  0.000  0.000  0.000
                   -0.000  0.000 -0.000  0.000 -0.000  0.000 -0.000 -0.000
                   -0.000  0.000 -0.000  0.000
   9 W  274 -0.000 -0.000 -0.000  0.000 -0.000 -0.000  0.000  0.000 -0.000
                    0.000  0.000  0.000 -0.000 -0.000  0.000  0.000  0.000
                   -0.000  0.000  0.000 -0.000 -0.000  0.000 -0.000 -0.000
                    0.000 -0.000 -0.000  0.000  0.000  0.000 -0.000  0.000
                   -0.000 -0.000 -0.000
  10 W  274 -0.000 -0.000 -0.000  0.000 -0.000 -0.000  0.000  0.000 -0.000
                    0.000  0.000  0.000 -0.000 -0.000  0.000  0.000  0.000
                   -0.000  0.000  0.000 -0.000 -0.000  0.000 -0.000 -0.000
                    0.000 -0.000 -0.000  0.000  0.000  0.000 -0.000  0.000
                   -0.000 -0.000 -0.000
  11 W  274  0.000 -0.000 -0.000  0.000 -0.000  0.000  0.000 -0.000  0.000
                    0.000 -0.000 -0.000 -0.000  0.000 -0.000 -0.000 -0.000
                    0.000  0.000  0.000  0.000  0.000 -0.000 -0.000 -0.000
                   -0.000 -0.000  0.000  0.000  0.000 -0.000  0.000 -0.000
                   -0.000 -0.000  0.000
  12 W  274  0.000 -0.000 -0.000  0.000 -0.000  0.000  0.000 -0.000  0.000
                    0.000 -0.000 -0.000 -0.000  0.000 -0.000 -0.000 -0.000
                    0.000  0.000  0.000  0.000  0.000 -0.000 -0.000 -0.000
                   -0.000 -0.000  0.000  0.000  0.000 -0.000  0.000 -0.000
                   -0.000 -0.000  0.000

  ATOM    Z CHARGE  SHELL POPULATION

   1 TE 252  0.000  0.000 -0.000  0.000 -0.000  0.000 -0.000  0.000  0.000
                    0.000 -0.000  0.000  0.000
   2 TE 252  0.000  0.000 -0.000  0.000 -0.000  0.000 -0.000  0.000  0.000
                    0.000 -0.000  0.000  0.000
   3 TE 252  0.000  0.000  0.000  0.000  0.000  0.000 -0.000 -0.000  0.000
                    0.000 -0.000  0.000 -0.000
   4 TE 252  0.000  0.000  0.000  0.000  0.000  0.000 -0.000 -0.000  0.000
                    0.000 -0.000  0.000 -0.000
   5 TE 252 -0.000  0.000 -0.000  0.000 -0.000  0.000  0.000 -0.000 -0.000
                    0.000 -0.000  0.000 -0.000
   6 TE 252 -0.000  0.000 -0.000  0.000 -0.000  0.000  0.000 -0.000 -0.000
                    0.000 -0.000  0.000 -0.000
   7 TE 252 -0.000  0.000 -0.000  0.000  0.000  0.000 -0.000  0.000 -0.000
                   -0.000  0.000 -0.000 -0.000
   8 TE 252 -0.000  0.000 -0.000  0.000  0.000  0.000 -0.000  0.000 -0.000
                   -0.000  0.000 -0.000 -0.000
   9 W  274 -0.000 -0.000 -0.000  0.000 -0.000  0.000  0.000 -0.000  0.000
                   -0.000  0.000 -0.000
  10 W  274 -0.000 -0.000 -0.000  0.000 -0.000  0.000  0.000 -0.000  0.000
                   -0.000  0.000 -0.000
  11 W  274  0.000 -0.000 -0.000  0.000 -0.000 -0.000  0.000 -0.000  0.000
                   -0.000  0.000  0.000
  12 W  274  0.000 -0.000 -0.000  0.000 -0.000 -0.000  0.000 -0.000  0.000
                   -0.000  0.000  0.000

 OVERLAP POPULATION CONDENSED TO ATOMS FOR FIRST   6 NEIGHBORS

 ATOM A   1 TE   ATOM B     CELL      R(AB)/AU R(AB)/ANG    OVPOP(AB)
                 10 W    (  0  0  0)     5.184     2.743     0.000
                 11 W    (  0 -1  0)     5.197     2.750    -0.000
                  1 TE   ( -1  0  0)     6.446     3.411     0.000
                  7 TE   (  0  0  0)     6.491     3.435    -0.000
                  4 TE   (  0 -1  0)     6.671     3.530    -0.000
                  5 TE   (  0  0  0)     6.702     3.546    -0.000

 ATOM A   3 TE   ATOM B     CELL      R(AB)/AU R(AB)/ANG    OVPOP(AB)
                 12 W    (  0  0  1)     5.019     2.656    -0.000
                  9 W    (  0  0  1)     5.062     2.679    -0.000
                  3 TE   ( -1  0  0)     6.446     3.411    -0.000
                  2 TE   (  0 -1  0)     6.671     3.530    -0.000
                  6 TE   (  0  0  0)     6.693     3.542    -0.000
                  7 TE   (  0  0  0)     6.695     3.543    -0.000

 ATOM A   5 TE   ATOM B     CELL      R(AB)/AU R(AB)/ANG    OVPOP(AB)
                 12 W    (  0  0  0)     5.026     2.660     0.000
                  9 W    (  0  0  0)     5.034     2.664     0.000
                  5 TE   ( -1  0  0)     6.446     3.411     0.000
                  4 TE   (  0  0  0)     6.693     3.542    -0.000
                  1 TE   (  0  0  0)     6.702     3.546    -0.000
                  8 TE   (  0  0  0)     6.734     3.563     0.000

 ATOM A   7 TE   ATOM B     CELL      R(AB)/AU R(AB)/ANG    OVPOP(AB)
                 11 W    (  0 -1  0)     5.173     2.737    -0.000
                 10 W    (  0  0  0)     5.201     2.752     0.000
                  7 TE   ( -1  0  0)     6.446     3.411    -0.000
                  1 TE   (  0  0  0)     6.491     3.435    -0.000
                  3 TE   (  0  0  0)     6.695     3.543    -0.000
                  6 TE   (  0  0  0)     6.734     3.563     0.000

 ATOM A   9 W    ATOM B     CELL      R(AB)/AU R(AB)/ANG    OVPOP(AB)
                  5 TE   (  0  0  0)     5.034     2.664     0.000
                  3 TE   (  0  0 -1)     5.062     2.679    -0.000
                  2 TE   (  0  0 -1)     5.184     2.743     0.000
                  8 TE   (  0  0  0)     5.201     2.752     0.000
                 12 W    (  0  0  0)     5.305     2.807     0.000
                  9 W    ( -1  0  0)     6.446     3.411    -0.000

 ATOM A  11 W    ATOM B     CELL      R(AB)/AU R(AB)/ANG    OVPOP(AB)
                  4 TE   (  0  0  0)     5.019     2.656    -0.000
                  6 TE   (  0  0  0)     5.026     2.660     0.000
                  7 TE   (  0  1  0)     5.173     2.737    -0.000
                  1 TE   (  0  1  0)     5.197     2.750    -0.000
                 10 W    (  0  0  0)     5.305     2.807     0.000
                 11 W    ( -1  0  0)     6.446     3.411     0.000
 EIGENVECTORS IN FORTRAN UNIT  8

 FINAL OPTIMIZED GEOMETRY - DIMENSIONALITY OF THE SYSTEM      3
 (NON PERIODIC DIRECTION: LATTICE PARAMETER FORMALLY SET TO 500)
 *******************************************************************************
 LATTICE PARAMETERS (ANGSTROMS AND DEGREES) - BOHR = 0.5291772083 ANGSTROM
 PRIMITIVE CELL - CENTRING CODE 1/0 VOLUME=   273.629030 - DENSITY 10.772 g/cm^3
         A              B              C           ALPHA      BETA       GAMMA 
     3.41118112     6.14583352    13.05198602    90.000000  90.000000  90.000000
 *******************************************************************************
 ATOMS IN THE ASYMMETRIC UNIT    6 - ATOMS IN THE UNIT CELL:   12
     ATOM                 X/A                 Y/B                 Z/C    
 *******************************************************************************
      1 T 252 TE   -5.000000000000E-01 -2.206503188459E-01 -1.014071455366E-01
      2 F 252 TE    0.000000000000E+00  2.206503188459E-01  3.985928544634E-01
      3 T 252 TE   -5.000000000000E-01 -2.866213604727E-01  3.510936237039E-01
      4 F 252 TE    0.000000000000E+00  2.866213604727E-01 -1.489063762961E-01
      5 T 252 TE    0.000000000000E+00 -1.310338568023E-01 -3.358669928370E-01
      6 F 252 TE   -5.000000000000E-01  1.310338568023E-01  1.641330071630E-01
      7 T 252 TE    0.000000000000E+00 -3.677980266171E-01  1.162520237965E-01
      8 F 252 TE   -5.000000000000E-01  3.677980266171E-01 -3.837479762035E-01
      9 T 274 W    -5.000000000000E-01 -2.556533631812E-02 -4.845636963395E-01
     10 F 274 W     0.000000000000E+00  2.556533631812E-02  1.543630366052E-02
     11 T 274 W    -5.000000000000E-01  3.868614979167E-01 -2.178127873703E-04
     12 F 274 W     0.000000000000E+00 -3.868614979167E-01  4.997821872126E-01

 T = ATOM BELONGING TO THE ASYMMETRIC UNIT
 INFORMATION **** fort.34 **** GEOMETRY OUTPUT FILE

 DIRECT LATTICE VECTORS CARTESIAN COMPONENTS (ANGSTROM)
          X                    Y                    Z
   0.341118111672E+01   0.000000000000E+00   0.000000000000E+00
   0.000000000000E+00   0.614583352485E+01   0.000000000000E+00
   0.000000000000E+00   0.000000000000E+00   0.130519860182E+02


 CARTESIAN COORDINATES - PRIMITIVE CELL
 *******************************************************************************
 *      ATOM          X(ANGSTROM)         Y(ANGSTROM)         Z(ANGSTROM)
 *******************************************************************************
    1   252 TE    1.705590558361E+00 -1.356080126832E+00 -1.323564645689E+00
    2   252 TE    0.000000000000E+00  1.356080126832E+00  5.202428363414E+00
    3   252 TE    1.705590558361E+00 -1.761527166131E+00  4.582469067665E+00
    4   252 TE    0.000000000000E+00  1.761527166131E+00 -1.943523941438E+00
    5   252 TE    0.000000000000E+00 -8.053122700256E-01 -4.383731294486E+00
    6   252 TE    1.705590558361E+00  8.053122700256E-01  2.142261714617E+00
    7   252 TE    0.000000000000E+00 -2.260425442357E+00  1.517319789180E+00
    8   252 TE    1.705590558361E+00  2.260425442357E+00 -5.008673219923E+00
    9   274 W     1.705590558361E+00 -1.571203010180E-01 -6.324518589553E+00
   10   274 W     0.000000000000E+00  1.571203010180E-01  2.014744195499E-01
   11   274 W     1.705590558361E+00  2.377586363370E+00 -2.842889455344E-03
   12   274 W     0.000000000000E+00 -2.377586363370E+00 -6.528835898559E+00

 ****    4 SYMMOPS - TRANSLATORS IN FRACTIONAL UNITS
 **** MATRICES AND TRANSLATORS IN THE CRYSTALLOGRAPHIC REFERENCE FRAME
   V INV                    ROTATION MATRICES                   TRANSLATORS
   1   1  1.00  0.00  0.00  0.00  1.00  0.00  0.00  0.00  1.00  0.00  0.00  0.00
   2   2 -1.00  0.00  0.00  0.00 -1.00  0.00  0.00  0.00  1.00  0.50  0.00  0.50
   3   3 -1.00  0.00  0.00  0.00  1.00  0.00  0.00  0.00  1.00  0.00  0.00  0.00
   4   4  1.00  0.00  0.00  0.00 -1.00  0.00  0.00  0.00  1.00  0.50  0.00  0.50
 TTTTTTTTTTTTTTTTTTTTTTTTTTTTTT END         TELAPSE    18696.01 TCPU    18668.12
 EEEEEEEEEE TERMINATION  DATE 03 08 2023 TIME 23:23:25.1
NODE    0 CPU TIME =     18668.122
NODE    1 CPU TIME =     18688.738
NODE    2 CPU TIME =     18688.301
NODE    3 CPU TIME =     18688.830
NODE    4 CPU TIME =     18688.832
NODE    5 CPU TIME =     18688.670
NODE    6 CPU TIME =     18688.724
NODE    7 CPU TIME =     18688.762
NODE    8 CPU TIME =     18688.415
NODE    9 CPU TIME =     18688.648
NODE   10 CPU TIME =     18688.614
NODE   11 CPU TIME =     18688.967
NODE   12 CPU TIME =     18688.885
NODE   13 CPU TIME =     18689.371
NODE   14 CPU TIME =     18689.123
NODE   15 CPU TIME =     18688.769
NODE   16 CPU TIME =     18680.563
NODE   17 CPU TIME =     18688.409
NODE   18 CPU TIME =     18688.161
NODE   19 CPU TIME =     18687.800
NODE   20 CPU TIME =     18688.372
NODE   21 CPU TIME =     18688.156
NODE   22 CPU TIME =     18688.284
NODE   23 CPU TIME =     18688.447
NODE   24 CPU TIME =     18682.095
NODE   25 CPU TIME =     18685.723
NODE   26 CPU TIME =     18667.598
NODE   27 CPU TIME =     18684.105
NODE   28 CPU TIME =     18687.188
NODE   29 CPU TIME =     18676.689
NODE   30 CPU TIME =     18684.092
NODE   31 CPU TIME =     18669.891
    TOTAL CPU TIME =    597935.343
